VARIABLES="time" "Distance" "lon" "lat" "density" "Vx" "Vy" "Vz" "p" "Bx" "By" "Bz" "T"
ZONE
DT=(DOUBLE DOUBLE DOUBLE DOUBLE DOUBLE DOUBLE DOUBLE DOUBLE DOUBLE DOUBLE DOUBLE DOUBLE DOUBLE )
2.012529234973e+03 1.020000000000e+00 3.591507555516e+01 4.200000000000e+00 3.652711505346e+00 4.177684221488e+02 7.070546155698e+00 -2.495022167756e+00 5.448854049228e+01 2.589592908127e+01 -8.701723017045e+00 -1.704747534736e+00 5.393331811807e+04
2.012529349013e+03 1.020000000000e+00 3.591507555516e+01 4.200000000000e+00 3.903202833374e+00 4.158196115199e+02 7.340565587187e+00 -1.329583821007e+00 5.995003876155e+01 2.288904737657e+01 -8.715980294206e+00 -5.343045652393e-01 5.552091706599e+04
2.012529463053e+03 1.020000000000e+00 3.591507555516e+01 4.200000000000e+00 4.208302510863e+00 4.143577701154e+02 7.379797602364e+00 -4.683467205378e-01 6.683595230242e+01 1.979479978681e+01 -8.630231237902e+00 4.775235883051e-01 5.741999675801e+04
2.012529577093e+03 1.020000000000e+00 3.591507555516e+01 4.200000000000e+00 4.521065477482e+00 4.130516063724e+02 7.252663438103e+00 3.731898310541e-02 7.409478726903e+01 1.679155663372e+01 -8.473536063887e+00 1.174904151339e+00 5.927367953126e+04
2.012529691134e+03 1.020000000000e+00 3.591507555516e+01 4.200000000000e+00 4.810908225710e+00 4.117652850988e+02 6.690424865382e+00 2.137844398206e-01 8.097763615994e+01 1.409177881491e+01 -8.299599059344e+00 1.511862639614e+00 6.089916541255e+04
2.012529805174e+03 1.020000000000e+00 3.591507555516e+01 4.200000000000e+00 5.066306087800e+00 4.104882391854e+02 5.506774891593e+00 1.302762661278e-01 8.715613141516e+01 1.184854255748e+01 -8.124906680124e+00 1.636758503909e+00 6.226142857226e+04
2.012529919214e+03 1.020000000000e+00 3.591507555516e+01 4.200000000000e+00 5.278334277020e+00 4.092336498352e+02 3.901115525303e+00 -3.146558901171e-01 9.236497109124e+01 1.010127823092e+01 -7.946145870004e+00 1.617046144366e+00 6.334727199225e+04
2.012530033254e+03 1.020000000000e+00 3.591507555516e+01 4.200000000000e+00 5.438415091503e+00 4.079879198204e+02 2.231460108717e+00 -9.870429345143e-01 9.657256115127e+01 8.782367248054e+00 -7.678240813423e+00 1.440013352031e+00 6.429240254744e+04
2.012530147295e+03 1.020000000000e+00 3.681507555516e+01 4.300000000000e+00 5.551844427043e+00 4.098110267439e+02 1.035310309332e+00 -2.269222294287e+00 9.760426406825e+01 1.103231125370e+01 -9.544930443406e+00 8.568938227319e-01 6.365780544410e+04
2.012530261335e+03 1.020000000000e+00 3.681507555516e+01 4.300000000000e+00 5.480315114719e+00 4.086357437318e+02 -4.146415041162e-01 -2.716695873943e+00 1.008032480619e+02 1.001309761383e+01 -8.556646803558e+00 9.343077759416e-02 6.660542502735e+04
2.012530375375e+03 1.020000000000e+00 3.681507555516e+01 4.300000000000e+00 5.363698712392e+00 4.075158606601e+02 -1.533306927925e+00 -3.111510249663e+00 1.027415884957e+02 9.054747465236e+00 -7.480332831798e+00 -5.450961592020e-01 6.936544779973e+04
2.012530489415e+03 1.020000000000e+00 3.681507555516e+01 4.300000000000e+00 5.231056537670e+00 4.062044276155e+02 -2.185394070449e+00 -3.362626547132e+00 1.028870092392e+02 8.036715483932e+00 -6.245957809711e+00 -9.397132639965e-01 7.122917171752e+04
2.012530603456e+03 1.020000000000e+00 3.681507555516e+01 4.300000000000e+00 5.082420832041e+00 4.043295967203e+02 -2.446773516704e+00 -3.452495136468e+00 1.007675057323e+02 6.846181740267e+00 -4.634230882542e+00 -1.087031378070e+00 7.180342192170e+04
2.012530717496e+03 1.020000000000e+00 3.681507555516e+01 4.300000000000e+00 4.939247001056e+00 4.020623564029e+02 -2.434429155271e+00 -3.409477804910e+00 9.782372340856e+01 5.394752258188e+00 -2.827414391575e+00 -1.103213369805e+00 7.172632430202e+04
2.012530831536e+03 1.020000000000e+00 3.681507555516e+01 4.300000000000e+00 4.814625999147e+00 3.994822715487e+02 -1.883648361949e+00 -3.057081902323e+00 9.485317488147e+01 3.622082590642e+00 -9.447161920832e-01 -9.700881785947e-01 7.134907619018e+04
2.012530945576e+03 1.020000000000e+00 3.681507555516e+01 4.300000000000e+00 4.705092723779e+00 3.965639110606e+02 -6.859141544468e-01 -2.126468138502e+00 9.207156497696e+01 1.498253453362e+00 1.040293108416e+00 -5.410757638171e-01 7.087141142185e+04
2.012531059617e+03 1.020000000000e+00 3.681507555516e+01 4.300000000000e+00 4.609692804908e+00 3.933197519942e+02 1.128613974079e+00 -8.917888371793e-01 8.933273965839e+01 -9.855418457650e-01 3.212943449818e+00 1.448772708219e-01 7.018756051560e+04
2.012531173657e+03 1.020000000000e+00 3.681507555516e+01 4.300000000000e+00 4.527716941892e+00 3.898409779434e+02 3.225825056518e+00 2.992154270557e-01 8.603117437312e+01 -3.815543421701e+00 5.577059283836e+00 8.214044579918e-01 6.882006287432e+04
2.012531287697e+03 1.020000000000e+00 3.681507555516e+01 4.300000000000e+00 4.475656873307e+00 3.862759194279e+02 5.464116923667e+00 1.268396840925e+00 8.228004584564e+01 -6.956091043268e+00 8.104027777443e+00 1.316743723617e+00 6.658260314637e+04
2.012531401737e+03 1.020000000000e+00 3.681507555516e+01 4.300000000000e+00 4.468252580304e+00 3.827392164662e+02 7.747283522377e+00 1.984929991934e+00 7.827516202661e+01 -1.032932902012e+01 1.074346158677e+01 1.624076502170e+00 6.343353455353e+04
2.012531515778e+03 1.020000000000e+00 3.681507555516e+01 4.300000000000e+00 4.476779220841e+00 3.792832619838e+02 9.993784202191e+00 2.481497751807e+00 7.381689342870e+01 -1.382130360354e+01 1.341283889296e+01 1.801306285428e+00 5.969044838787e+04
2.012531629818e+03 1.020000000000e+00 3.681507555516e+01 4.300000000000e+00 4.486806911298e+00 3.759750008771e+02 1.211212274447e+01 2.731744026441e+00 6.852158273164e+01 -1.729781835955e+01 1.605170507250e+01 1.864154580613e+00 5.526988737170e+04
2.012531743858e+03 1.020000000000e+00 3.681507555516e+01 4.300000000000e+00 4.494505364074e+00 3.729269593400e+02 1.400581479476e+01 2.789406957587e+00 6.278061309355e+01 -2.063229765245e+01 1.860940069256e+01 1.814024014872e+00 5.054326289485e+04
2.012531857898e+03 1.020000000000e+00 3.681507555516e+01 4.300000000000e+00 4.504511847087e+00 3.702176134248e+02 1.559529517384e+01 2.705992847927e+00 5.706323472899e+01 -2.372667407667e+01 2.097872817216e+01 1.604097334632e+00 4.583882010356e+04
2.012531971939e+03 1.020000000000e+00 3.681507555516e+01 4.300000000000e+00 4.524392931453e+00 3.678712696154e+02 1.682551400714e+01 2.487581224662e+00 5.179938686391e+01 -2.651097638059e+01 2.308177839019e+01 1.211588991842e+00 4.144193964051e+04
2.012532085979e+03 1.020000000000e+00 3.681507555516e+01 4.300000000000e+00 4.560386501978e+00 3.658760023997e+02 1.767192855622e+01 2.158869932052e+00 4.732954055862e+01 -2.895061529112e+01 2.489774697253e+01 6.538143053951e-01 3.758993980867e+04
2.012532200019e+03 1.020000000000e+00 3.681507555516e+01 4.300000000000e+00 4.618657107697e+00 3.642403883746e+02 1.818295397852e+01 1.864106068571e+00 4.388296019538e+01 -3.105285862506e+01 2.645913951496e+01 9.698587071831e-02 3.443159290686e+04
2.012532314059e+03 1.020000000000e+00 3.681507555516e+01 4.300000000000e+00 4.703898121533e+00 3.629515824175e+02 1.841161744729e+01 1.694979042262e+00 4.140360460448e+01 -3.283575820639e+01 2.777201555915e+01 -3.453015729357e-01 3.190817537349e+04
2.012532428100e+03 1.020000000000e+00 3.681507555516e+01 4.300000000000e+00 4.807200979168e+00 3.620716636504e+02 1.839371671767e+01 1.631291666572e+00 3.975915749457e+01 -3.433531298878e+01 2.886579193544e+01 -6.113616157933e-01 2.998531538844e+04
2.012532542140e+03 1.020000000000e+00 3.681507555516e+01 4.300000000000e+00 4.910669678896e+00 3.616399817782e+02 1.814811524217e+01 1.651665427448e+00 3.862251312531e+01 -3.558923900930e+01 2.983914167232e+01 -7.260361078167e-01 2.850241387125e+04
2.012532656180e+03 1.020000000000e+00 3.681507555516e+01 4.300000000000e+00 5.036598918385e+00 3.617452358317e+02 1.753258374770e+01 1.820799767688e+00 3.818327324388e+01 -3.662211505967e+01 3.066551044166e+01 -7.289649462352e-01 2.746967092681e+04
2.012532770220e+03 1.020000000000e+00 3.681507555516e+01 4.300000000000e+00 5.163021914869e+00 3.624776734152e+02 1.647024441799e+01 2.195823687586e+00 3.845651900773e+01 -3.743129569920e+01 3.140932159125e+01 -5.795363686766e-01 2.699007349068e+04
2.012532884261e+03 1.020000000000e+00 3.781507555516e+01 4.400000000000e+00 5.172339108698e+00 3.591512748832e+02 1.787855962699e+01 2.182765300710e+00 3.945304377993e+01 -3.629644912622e+01 3.061221774143e+01 -6.791301193304e-01 2.764483958343e+04
2.012532998301e+03 1.020000000000e+00 3.781507555516e+01 4.400000000000e+00 5.361986165386e+00 3.600837324907e+02 1.663449065746e+01 2.601428087623e+00 4.011228791584e+01 -3.714003887972e+01 3.136108046681e+01 -4.005871300430e-01 2.709623728316e+04
2.012533112341e+03 1.020000000000e+00 3.781507555516e+01 4.400000000000e+00 5.564517299893e+00 3.616889967582e+02 1.497925400843e+01 3.160077373138e+00 4.155292499479e+01 -3.777368883490e+01 3.201547945851e+01 1.694357373736e-02 2.702622158809e+04
2.012533226381e+03 1.020000000000e+00 3.781507555516e+01 4.400000000000e+00 5.778236969992e+00 3.636266007592e+02 1.303128391087e+01 3.844055293220e+00 4.345715242711e+01 -3.820740608738e+01 3.255919835515e+01 6.060096361288e-01 2.717952174221e+04
2.012533340422e+03 1.020000000000e+00 3.781507555516e+01 4.400000000000e+00 6.062678001066e+00 3.661329439422e+02 1.068660088525e+01 4.567156173172e+00 4.637255186068e+01 -3.846080271063e+01 3.285201699149e+01 1.296754896712e+00 2.762368998771e+04
2.012533454462e+03 1.020000000000e+00 3.781507555516e+01 4.400000000000e+00 6.360494226987e+00 3.689616330679e+02 8.186076355807e+00 5.261567857493e+00 4.978228621198e+01 -3.857173040371e+01 3.293204360788e+01 2.015499622605e+00 2.827259113640e+04
2.012533568502e+03 1.020000000000e+00 3.781507555516e+01 4.400000000000e+00 6.600503556957e+00 3.718115875539e+02 5.713664818706e+00 5.892864705752e+00 5.313307404020e+01 -3.858397155676e+01 3.284516142330e+01 2.688497003975e+00 2.910084961738e+04
2.012533682542e+03 1.020000000000e+00 3.781507555516e+01 4.400000000000e+00 6.741870559422e+00 3.745001489040e+02 3.372514787235e+00 6.425229022369e+00 5.614072417958e+01 -3.854287655855e+01 3.261530403829e+01 3.248323196882e+00 3.014122115628e+04
2.012533796583e+03 1.020000000000e+00 3.781507555516e+01 4.400000000000e+00 6.816930356425e+00 3.768810394040e+02 1.236617052879e+00 6.842915033431e+00 5.862271738959e+01 -3.849649025809e+01 3.222434294164e+01 3.658920955387e+00 3.117625662717e+04
2.012533910623e+03 1.020000000000e+00 3.781507555516e+01 4.400000000000e+00 6.794976779302e+00 3.788606796135e+02 -6.139021366949e-01 7.153761002399e+00 6.039309543493e+01 -3.847700932496e+01 3.169147210439e+01 3.922101011052e+00 3.224582648224e+04
2.012534024663e+03 1.020000000000e+00 3.781507555516e+01 4.400000000000e+00 6.686489747214e+00 3.804113052826e+02 -2.145608382983e+00 7.372951678742e+00 6.130397324847e+01 -3.850267523308e+01 3.110544462919e+01 4.061329585231e+00 3.325698410660e+04
2.012534138703e+03 1.020000000000e+00 3.781507555516e+01 4.400000000000e+00 6.526256681982e+00 3.815280144526e+02 -3.342004133202e+00 7.495548082193e+00 6.142884691162e+01 -3.857864613448e+01 3.050634450464e+01 4.044908300846e+00 3.412939035261e+04
2.012534252744e+03 1.020000000000e+00 3.781507555516e+01 4.400000000000e+00 6.350704232101e+00 3.822108261953e+02 -4.240726772123e+00 7.478637798567e+00 6.086513794978e+01 -3.871779278013e+01 2.987785050149e+01 3.842568041548e+00 3.473677444536e+04
2.012534366784e+03 1.020000000000e+00 3.781507555516e+01 4.400000000000e+00 6.129826582494e+00 3.822663866480e+02 -4.849255871340e+00 7.410480367749e+00 5.928742567696e+01 -3.879961031496e+01 2.929289565346e+01 3.575999596049e+00 3.502303982026e+04
2.012534480824e+03 1.020000000000e+00 3.781507555516e+01 4.400000000000e+00 5.945454678101e+00 3.826984360108e+02 -5.180991790707e+00 6.984355328469e+00 6.061571408799e+01 -3.865349941513e+01 2.904146483672e+01 3.122680126241e+00 3.691469165233e+04
2.012534594864e+03 1.020000000000e+00 3.781507555516e+01 4.400000000000e+00 7.954992622465e+00 4.322832660548e+02 -4.889886884759e-01 -9.683693914765e+00 6.124179924995e+02 -4.139380943867e+01 4.467460498935e+01 -4.588619470533e+00 2.442700800447e+05
2.012534708905e+03 1.020000000000e+00 3.781507555516e+01 4.400000000000e+00 1.558472956294e+01 5.525969459596e+02 1.149615071406e+01 -4.547486475074e+01 3.182127031582e+03 -4.863287399546e+01 1.039848994837e+02 -2.172005060194e+01 7.360653117193e+05
2.012534822945e+03 1.020000000000e+00 3.781507555516e+01 4.400000000000e+00 1.818786276912e+01 5.871179041601e+02 1.763598381432e+01 -5.343683974572e+01 4.176308175718e+03 -4.912586036130e+01 1.258141532592e+02 -2.332908212787e+01 8.317799018252e+05
2.012534936985e+03 1.020000000000e+00 3.781507555516e+01 4.400000000000e+00 1.769800993386e+01 5.874121695702e+02 1.853267485032e+01 -5.100093082570e+01 3.972539115929e+03 -4.440181079238e+01 1.226437572441e+02 -1.614050739293e+01 8.126420251858e+05
2.012535051025e+03 1.020000000000e+00 3.781507555516e+01 4.400000000000e+00 1.689362769756e+01 5.789761237979e+02 1.587073243065e+01 -4.604512412188e+01 3.535703590228e+03 -3.767599422928e+01 1.015054890748e+02 -7.718374775914e+00 7.579109376323e+05
2.012535165066e+03 1.020000000000e+00 3.781507555516e+01 4.400000000000e+00 1.671022223061e+01 5.740696810230e+02 5.102803521612e+00 -4.423096297907e+01 3.311637186823e+03 -3.276791545088e+01 6.049453779377e+01 -4.942108262068e+00 7.177825207603e+05
2.012535279106e+03 1.020000000000e+00 3.781507555516e+01 4.400000000000e+00 1.673989114104e+01 5.751382952662e+02 -1.177839370178e+01 -4.547859142055e+01 3.207547345283e+03 -2.972699454417e+01 6.514998522145e+00 -7.075503558323e+00 6.940369105244e+05
2.012535393146e+03 1.020000000000e+00 3.781507555516e+01 4.400000000000e+00 1.606266320493e+01 5.768309743034e+02 -2.684561845896e+01 -5.134140848442e+01 2.987665319508e+03 -2.843212818873e+01 -5.320060937972e+01 -2.313587047023e+01 6.738197407151e+05
2.012535507186e+03 1.020000000000e+00 3.781507555516e+01 4.400000000000e+00 1.375317757225e+01 5.759835767095e+02 -3.556383310016e+01 -5.701710740642e+01 2.461411833953e+03 -3.193298729060e+01 -1.030087758792e+02 -5.200152307089e+01 6.507649167285e+05
2.012535621227e+03 1.020000000000e+00 3.871507555516e+01 4.400000000000e+00 1.054294328116e+01 5.705344269402e+02 -4.062817776620e+01 -5.641783777509e+01 1.864675692160e+03 -4.011350372997e+01 -1.227310005193e+02 -7.331201318964e+01 6.430126292813e+05
2.012535735267e+03 1.020000000000e+00 3.871507555516e+01 4.400000000000e+00 7.119704320630e+00 5.639841563425e+02 -3.922338788579e+01 -5.367814201472e+01 1.328301016852e+03 -5.989606680212e+01 -1.222283562901e+02 -1.012404147087e+02 6.772363451087e+05
2.012535849307e+03 1.020000000000e+00 3.871507555516e+01 4.400000000000e+00 5.199440392016e+00 5.589934662168e+02 -2.848412473899e+01 -4.602067241510e+01 9.785037133895e+02 -8.115950200624e+01 -1.117449846134e+02 -1.194603301161e+02 6.803024918525e+05
2.012535963347e+03 1.020000000000e+00 3.871507555516e+01 4.400000000000e+00 4.210053346826e+00 5.544443643636e+02 -2.715701479687e+00 -3.958042733069e+01 7.204767936836e+02 -9.979412052641e+01 -9.555364513122e+01 -1.345541313757e+02 6.179662555520e+05
2.012536077388e+03 1.020000000000e+00 3.871507555516e+01 4.400000000000e+00 3.753772997870e+00 5.514741173073e+02 2.056924220493e+01 -3.469483836791e+01 5.284754494708e+02 -1.134568217033e+02 -8.421403211197e+01 -1.448161919661e+02 5.091353690035e+05
2.012536191428e+03 1.020000000000e+00 3.871507555516e+01 4.400000000000e+00 3.570011139703e+00 5.489585293885e+02 3.444117966825e+01 -2.822899625083e+01 3.893521910551e+02 -1.234629439943e+02 -7.932578988605e+01 -1.491636036690e+02 3.947768446215e+05
2.012536305468e+03 1.020000000000e+00 3.871507555516e+01 4.400000000000e+00 3.457444339948e+00 5.474823085484e+02 4.036101411592e+01 -2.089517495325e+01 2.809140579607e+02 -1.321491153642e+02 -8.086234194038e+01 -1.493581094421e+02 2.940944800223e+05
2.012536419508e+03 1.020000000000e+00 3.871507555516e+01 4.400000000000e+00 3.294559999681e+00 5.476263951539e+02 4.141521301681e+01 -1.068532237212e+01 1.876624112457e+02 -1.394438692473e+02 -9.304473594195e+01 -1.449439063372e+02 2.057276808321e+05
2.012536533549e+03 1.020000000000e+00 3.871507555516e+01 4.400000000000e+00 2.949321015435e+00 5.478566099384e+02 4.175129540586e+01 3.111979947727e+00 1.129046001079e+02 -1.449123788448e+02 -1.098064880823e+02 -1.330676791670e+02 1.377383690823e+05
2.012536647589e+03 1.020000000000e+00 3.871507555516e+01 4.400000000000e+00 2.504019040758e+00 5.480717376284e+02 4.285275011077e+01 1.555288511169e+01 6.222494859428e+01 -1.503317956384e+02 -1.254820237351e+02 -1.166198658410e+02 8.923447804616e+04
2.012536761629e+03 1.020000000000e+00 3.871507555516e+01 4.400000000000e+00 2.114229024602e+00 5.477495495819e+02 4.492797541576e+01 2.272361708632e+01 3.343966305302e+01 -1.562088699850e+02 -1.375425093889e+02 -9.953305039017e+01 5.687482631319e+04
2.012536875669e+03 1.020000000000e+00 3.871507555516e+01 4.400000000000e+00 1.831706096798e+00 5.448343845212e+02 4.758576097508e+01 2.479359761025e+01 2.027386120814e+01 -1.619101426873e+02 -1.448441907892e+02 -8.339260601416e+01 3.999528626947e+04
2.012536989709e+03 1.020000000000e+00 3.871507555516e+01 4.400000000000e+00 1.626685398899e+00 5.381963026232e+02 5.116731584066e+01 2.297214611142e+01 1.489287611608e+01 -1.672806435949e+02 -1.479875366440e+02 -6.849605797196e+01 3.315588615436e+04
2.012537103750e+03 1.020000000000e+00 3.871507555516e+01 4.400000000000e+00 1.438720417632e+00 5.309945454190e+02 5.500756161019e+01 1.791805382931e+01 1.173586608954e+01 -1.724835075795e+02 -1.492196317780e+02 -5.427965793311e+01 2.959849757402e+04
2.012537217790e+03 1.020000000000e+00 3.871507555516e+01 4.400000000000e+00 1.260144535650e+00 5.242206662119e+02 5.717754323865e+01 1.305000974794e+01 9.434473027226e+00 -1.771476428365e+02 -1.495412892030e+02 -3.921252140930e+01 2.724034782697e+04
2.012537331830e+03 1.020000000000e+00 3.871507555516e+01 4.400000000000e+00 1.126372637530e+00 5.172594622315e+02 5.716806335630e+01 8.962647799121e+00 8.016742846178e+00 -1.812101807803e+02 -1.487623837813e+02 -2.329172689783e+01 2.592207354619e+04
2.012537445870e+03 1.020000000000e+00 3.871507555516e+01 4.400000000000e+00 1.041455735464e+00 5.100265539380e+02 5.599195151187e+01 5.175528409047e+00 7.466428492631e+00 -1.846901647786e+02 -1.465266612899e+02 -7.045466686622e+00 2.612176761495e+04
2.012537559911e+03 1.020000000000e+00 3.871507555516e+01 4.400000000000e+00 9.842322785186e-01 5.030743423747e+02 5.439509439827e+01 1.799059380149e+00 7.291707905266e+00 -1.872770627493e+02 -1.427983854380e+02 9.183357497799e+00 2.697081479051e+04
2.012537673951e+03 1.020000000000e+00 3.871507555516e+01 4.400000000000e+00 9.449282470636e-01 4.967254358955e+02 5.236076474924e+01 -1.211634477459e+00 7.342807739344e+00 -1.888499137583e+02 -1.379525612340e+02 2.518115076435e+01 2.825353624649e+04
2.012537787991e+03 1.020000000000e+00 3.871507555516e+01 4.400000000000e+00 9.111331177078e-01 4.897150826035e+02 5.102084706970e+01 -3.899979243910e+00 7.389601465895e+00 -1.890860702836e+02 -1.315278746233e+02 4.062758213484e+01 2.944129086849e+04
2.012537902031e+03 1.020000000000e+00 3.871507555516e+01 4.400000000000e+00 8.813458105790e-01 4.829570744829e+02 4.964176510062e+01 -6.218420079527e+00 7.396079561391e+00 -1.881797236439e+02 -1.241505234680e+02 5.531075773750e+01 3.042102059240e+04
2.012538016072e+03 1.020000000000e+00 3.871507555516e+01 4.400000000000e+00 8.549206377981e-01 4.769587718780e+02 4.818453287660e+01 -7.973325527557e+00 7.413302198470e+00 -1.865632336378e+02 -1.161282028396e+02 6.919806688034e+01 3.141514584091e+04
2.012538130112e+03 1.020000000000e+00 3.871507555516e+01 4.400000000000e+00 8.299901799078e-01 4.713822977603e+02 4.718390618157e+01 -9.291736625202e+00 7.247441248426e+00 -1.843150115937e+02 -1.073754286223e+02 8.201524405858e+01 3.166255710431e+04
2.012538244152e+03 1.020000000000e+00 3.871507555516e+01 4.400000000000e+00 8.063018345083e-01 4.660626414650e+02 4.657498051567e+01 -1.032522506809e+01 6.950113600586e+00 -1.814826845017e+02 -9.803350693451e+01 9.350680127221e+01 3.127247406647e+04
2.012538358192e+03 1.020000000000e+00 3.971507555516e+01 4.500000000000e+00 8.148717681906e-01 4.534870192582e+02 4.565686220319e+01 -1.506810791006e+01 8.219642618437e+00 -1.779364614129e+02 -9.044975558265e+01 1.150354423889e+02 3.616638401585e+04
2.012538472233e+03 1.020000000000e+00 3.971507555516e+01 4.500000000000e+00 7.880662350704e-01 4.487506417331e+02 4.652580904070e+01 -1.550454679294e+01 7.326725728389e+00 -1.736013840183e+02 -7.983133296478e+01 1.237461531096e+02 3.352643110545e+04
2.012538586273e+03 1.020000000000e+00 3.971507555516e+01 4.500000000000e+00 7.644654049324e-01 4.445588381443e+02 4.810367877192e+01 -1.556818396315e+01 6.500380392590e+00 -1.675507641945e+02 -6.952620153190e+01 1.310878966277e+02 3.077389783785e+04
2.012538700313e+03 1.020000000000e+00 3.971507555516e+01 4.500000000000e+00 7.483544894151e-01 4.410085590614e+02 4.998131613528e+01 -1.546306219811e+01 5.795090686206e+00 -1.607964571146e+02 -5.971002745238e+01 1.370817561007e+02 2.806677701437e+04
2.012538814353e+03 1.020000000000e+00 3.971507555516e+01 4.500000000000e+00 7.359976881317e-01 4.380845317645e+02 5.192200506459e+01 -1.540066545663e+01 5.262785112389e+00 -1.538652896632e+02 -5.055877263596e+01 1.417796741624e+02 2.592378547454e+04
2.012538928394e+03 1.020000000000e+00 3.971507555516e+01 4.500000000000e+00 7.226796341698e-01 4.357800479964e+02 5.361659401924e+01 -1.552291192046e+01 4.898291869699e+00 -1.469349783010e+02 -4.220821692647e+01 1.452116642355e+02 2.456639685448e+04
2.012539042434e+03 1.020000000000e+00 3.971507555516e+01 4.500000000000e+00 7.062367943681e-01 4.340477350500e+02 5.504061933932e+01 -1.604117380898e+01 4.682271339653e+00 -1.401527272823e+02 -3.469486600922e+01 1.474408655491e+02 2.402822584529e+04
2.012539156474e+03 1.020000000000e+00 3.971507555516e+01 4.500000000000e+00 6.871591496231e-01 4.325817702996e+02 5.614456276515e+01 -1.711516098091e+01 4.551894253504e+00 -1.337104955403e+02 -2.795045841003e+01 1.486471775715e+02 2.401192566534e+04
2.012539270514e+03 1.020000000000e+00 3.971507555516e+01 4.500000000000e+00 6.660018648191e-01 4.311547617172e+02 5.710859026082e+01 -1.853113565005e+01 4.502178810499e+00 -1.277192920546e+02 -2.188366077853e+01 1.490523174250e+02 2.450846458036e+04
2.012539384555e+03 1.020000000000e+00 3.971507555516e+01 4.500000000000e+00 6.401467785776e-01 4.298428754406e+02 5.813763230977e+01 -2.023562378319e+01 4.536018633658e+00 -1.221388834408e+02 -1.640600950207e+01 1.488203808648e+02 2.570631507643e+04
2.012539498595e+03 1.020000000000e+00 3.971507555516e+01 4.500000000000e+00 6.053929656421e-01 4.285096200693e+02 5.949238381906e+01 -2.223165611085e+01 4.535544375346e+00 -1.169312697645e+02 -1.150156914983e+01 1.481135926916e+02 2.719356344609e+04
2.012539612635e+03 1.020000000000e+00 3.971507555516e+01 4.500000000000e+00 5.630344108032e-01 4.271625071218e+02 6.145231288388e+01 -2.441314399091e+01 4.452153228861e+00 -1.121420732816e+02 -7.133221553259e+00 1.470749287388e+02 2.871103963436e+04
2.012539726675e+03 1.020000000000e+00 3.971507555516e+01 4.500000000000e+00 5.196528376843e-01 4.257438565454e+02 6.396666112415e+01 -2.664182503528e+01 4.318381491621e+00 -1.077781507631e+02 -3.189845956964e+00 1.457768887464e+02 3.017778029766e+04
2.012539840716e+03 1.020000000000e+00 3.971507555516e+01 4.500000000000e+00 4.774942611348e-01 4.241643527593e+02 6.683832336099e+01 -2.894506483709e+01 4.115850535724e+00 -1.037867208639e+02 3.942420431808e-01 1.442918179240e+02 3.129249370643e+04
2.012539954756e+03 1.020000000000e+00 3.971507555516e+01 4.500000000000e+00 4.371949762378e-01 4.224245005476e+02 6.946612588451e+01 -3.124688505125e+01 3.851870607623e+00 -1.000709527949e+02 3.691328153053e+00 1.426589193118e+02 3.197819545911e+04
2.012540068796e+03 1.020000000000e+00 3.971507555516e+01 4.500000000000e+00 4.003438454849e-01 4.205718759305e+02 7.142646251880e+01 -3.339262599669e+01 3.600442922669e+00 -9.658226768504e+01 6.852973549551e+00 1.409117904678e+02 3.263811545075e+04
2.012540182836e+03 1.020000000000e+00 3.971507555516e+01 4.500000000000e+00 3.671349552417e-01 4.186085198226e+02 7.249298643748e+01 -3.519278922987e+01 3.405635650386e+00 -9.325627266811e+01 1.000482193863e+01 1.390670127055e+02 3.366245773922e+04
2.012540296877e+03 1.020000000000e+00 3.971507555516e+01 4.500000000000e+00 3.359561466730e-01 4.164858685844e+02 7.258333586447e+01 -3.657706620421e+01 3.276973037085e+00 -9.013143791548e+01 1.329447609101e+01 1.371347575141e+02 3.540354336535e+04
2.012540410917e+03 1.020000000000e+00 3.971507555516e+01 4.500000000000e+00 3.066712826614e-01 4.141267296222e+02 7.151868932302e+01 -3.740668100028e+01 3.258334519520e+00 -8.723715489540e+01 1.698951717394e+01 1.350596509558e+02 3.855895021656e+04
2.012540524957e+03 1.020000000000e+00 3.971507555516e+01 4.500000000000e+00 2.865039887082e-01 4.109599965226e+02 6.783135391373e+01 -3.706255349972e+01 3.534296123522e+00 -8.439046924368e+01 2.145508636385e+01 1.327885547527e+02 4.472852548693e+04
2.012540638997e+03 1.020000000000e+00 3.971507555516e+01 4.500000000000e+00 2.733092195887e-01 4.070149190494e+02 6.047376374853e+01 -3.617144153685e+01 4.101693091423e+00 -8.137550224338e+01 2.673209393600e+01 1.302813341609e+02 5.438835441967e+04
2.012540753038e+03 1.020000000000e+00 3.971507555516e+01 4.500000000000e+00 2.634833921726e-01 4.025288177650e+02 5.088868983471e+01 -3.456325893055e+01 4.685353812120e+00 -7.799387497687e+01 3.283638527471e+01 1.274912190623e+02 6.444743397376e+04
2.012540867078e+03 1.020000000000e+00 3.971507555516e+01 4.500000000000e+00 2.557892229518e-01 3.971318802317e+02 3.991080324949e+01 -3.150026482892e+01 5.137285623609e+00 -7.418831749206e+01 3.946084049749e+01 1.243746193881e+02 7.280482964280e+04
2.012540981118e+03 1.020000000000e+00 3.971507555516e+01 4.500000000000e+00 2.505103182732e-01 3.913424605900e+02 2.930374649555e+01 -2.755275109937e+01 5.393972756893e+00 -7.009427654097e+01 4.633145756275e+01 1.208479544635e+02 7.816845580860e+04
2.012541095158e+03 1.020000000000e+00 4.061507555516e+01 4.600000000000e+00 2.634986920606e-01 3.805073306350e+02 1.793876379155e+01 -2.190580248430e+01 4.985786460056e+00 -5.895724032655e+01 5.617987664110e+01 1.204891444028e+02 6.899773336914e+04
2.012541209199e+03 1.020000000000e+00 4.061507555516e+01 4.600000000000e+00 2.594856102541e-01 3.759303488949e+02 1.346529910713e+01 -1.723240996388e+01 4.781745102138e+00 -5.473176441963e+01 6.179466722841e+01 1.161783424702e+02 6.731528941054e+04
2.012541323239e+03 1.020000000000e+00 4.061507555516e+01 4.600000000000e+00 2.602282252364e-01 3.723810423402e+02 1.186379030458e+01 -1.352732434762e+01 4.499408477268e+00 -5.076286047894e+01 6.633661426588e+01 1.119664881754e+02 6.321598676473e+04
2.012541437279e+03 1.020000000000e+00 4.061507555516e+01 4.600000000000e+00 2.682985575514e-01 3.699716416428e+02 1.215868400374e+01 -1.096521518032e+01 4.232822196233e+00 -4.714220388369e+01 6.985528091344e+01 1.078985888947e+02 5.766982813056e+04
2.012541551319e+03 1.020000000000e+00 4.061507555516e+01 4.600000000000e+00 2.844135130515e-01 3.685152305127e+02 1.463624189963e+01 -9.199309676268e+00 4.028924945713e+00 -4.399325690336e+01 7.255763848010e+01 1.040052966058e+02 5.178205954798e+04
2.012541665360e+03 1.020000000000e+00 4.061507555516e+01 4.600000000000e+00 3.065189057669e-01 3.677062213627e+02 1.848810451512e+01 -7.405598338220e+00 3.892284267347e+00 -4.132698000084e+01 7.455995968983e+01 1.002650785606e+02 4.643372190617e+04
2.012541779400e+03 1.020000000000e+00 4.061507555516e+01 4.600000000000e+00 3.308964015901e-01 3.673567829544e+02 2.288314492540e+01 -5.501438961595e+00 3.805180955544e+00 -3.907409756579e+01 7.609779883642e+01 9.662644528665e+01 4.208597965628e+04
2.012541893440e+03 1.020000000000e+00 4.061507555516e+01 4.600000000000e+00 3.533002988417e-01 3.670413725435e+02 2.751836587259e+01 -3.554205180124e+00 3.728715881089e+00 -3.717017035756e+01 7.733683023162e+01 9.310466656294e+01 3.866401376314e+04
2.012542007480e+03 1.020000000000e+00 4.061507555516e+01 4.600000000000e+00 3.685174998131e-01 3.664671912308e+02 3.165287824472e+01 -1.499913872101e+00 3.657841970308e+00 -3.558103122956e+01 7.829897683920e+01 8.978561455571e+01 3.637000020286e+04
2.012542121521e+03 1.020000000000e+00 4.061507555516e+01 4.600000000000e+00 3.740048845990e-01 3.656361275272e+02 3.495184657789e+01 3.527476820111e-01 3.601125204428e+00 -3.424770041504e+01 7.902158000279e+01 8.665862861250e+01 3.528274804741e+04
2.012542235561e+03 1.020000000000e+00 4.061507555516e+01 4.600000000000e+00 3.712598360336e-01 3.647710435193e+02 3.748967096798e+01 1.645151861046e+00 3.562667103539e+00 -3.310223826383e+01 7.959614044539e+01 8.370151009086e+01 3.517947188719e+04
2.012542349601e+03 1.020000000000e+00 4.061507555516e+01 4.600000000000e+00 3.650272729587e-01 3.639319293939e+02 3.938864124041e+01 2.173713030410e+00 3.615790910703e+00 -3.211084022267e+01 7.999681226184e+01 8.093142490688e+01 3.630380814329e+04
2.012542463641e+03 1.020000000000e+00 4.061507555516e+01 4.600000000000e+00 3.558812732179e-01 3.633208661567e+02 4.060073180114e+01 1.816136915388e+00 4.280350319157e+00 -3.127104851086e+01 8.010050400697e+01 7.838721683662e+01 4.404735499146e+04
2.012542577682e+03 1.020000000000e+00 4.061507555516e+01 4.600000000000e+00 3.416623019617e-01 3.636489013605e+02 4.037997049732e+01 -6.600877633649e-01 6.577056988828e+00 -3.058268718046e+01 7.979594218763e+01 7.606032156180e+01 7.050362292475e+04
2.012542691722e+03 1.020000000000e+00 4.061507555516e+01 4.600000000000e+00 3.213608380049e-01 3.648886518647e+02 3.778910999505e+01 -6.240539989000e+00 1.039408062302e+01 -3.010157397165e+01 7.907392697376e+01 7.387896116100e+01 1.181424447759e+05