VARIABLES="time" "Distance" "lon" "lat" "density" "Vx" "Vy" "Vz" "p" "Bx" "By" "Bz" "T"
ZONE
DT=(DOUBLE DOUBLE DOUBLE DOUBLE DOUBLE DOUBLE DOUBLE DOUBLE DOUBLE DOUBLE DOUBLE DOUBLE DOUBLE )
2.012529234973e+03 1.020000000000e+00 3.591507555516e+01 4.200000000000e+00 3.652711505346e+00 4.177684221488e+02 7.070546155698e+00 -2.495022167756e+00 5.448854049228e+01 2.589592908127e+01 -8.701723017045e+00 -1.704747534736e+00 5.393331811807e+04
2.012529349013e+03 1.020000000000e+00 3.591507555516e+01 4.200000000000e+00 3.903202833374e+00 4.158196115199e+02 7.340565587187e+00 -1.329583821007e+00 5.995003876155e+01 2.288904737657e+01 -8.715980294206e+00 -5.343045652393e-01 5.552091706599e+04
2.012529463053e+03 1.020000000000e+00 3.591507555516e+01 4.200000000000e+00 4.208302510863e+00 4.143577701154e+02 7.379797602364e+00 -4.683467205378e-01 6.683595230242e+01 1.979479978681e+01 -8.630231237902e+00 4.775235883051e-01 5.741999675801e+04
2.012529577093e+03 1.020000000000e+00 3.591507555516e+01 4.200000000000e+00 4.521065477482e+00 4.130516063724e+02 7.252663438103e+00 3.731898310541e-02 7.409478726903e+01 1.679155663372e+01 -8.473536063887e+00 1.174904151339e+00 5.927367953126e+04
2.012529691134e+03 1.020000000000e+00 3.591507555516e+01 4.200000000000e+00 4.810908225710e+00 4.117652850988e+02 6.690424865382e+00 2.137844398206e-01 8.097763615994e+01 1.409177881491e+01 -8.299599059344e+00 1.511862639614e+00 6.089916541255e+04
2.012529805174e+03 1.020000000000e+00 3.591507555516e+01 4.200000000000e+00 5.066306087800e+00 4.104882391854e+02 5.506774891593e+00 1.302762661278e-01 8.715613141516e+01 1.184854255748e+01 -8.124906680124e+00 1.636758503909e+00 6.226142857226e+04
2.012529919214e+03 1.020000000000e+00 3.591507555516e+01 4.200000000000e+00 5.278334277020e+00 4.092336498352e+02 3.901115525303e+00 -3.146558901171e-01 9.236497109124e+01 1.010127823092e+01 -7.946145870004e+00 1.617046144366e+00 6.334727199225e+04
2.012530033254e+03 1.020000000000e+00 3.591507555516e+01 4.200000000000e+00 5.438415091503e+00 4.079879198204e+02 2.231460108717e+00 -9.870429345143e-01 9.657256115127e+01 8.782367248054e+00 -7.678240813423e+00 1.440013352031e+00 6.429240254744e+04
2.012530147295e+03 1.020000000000e+00 3.681507555516e+01 4.300000000000e+00 5.551844427043e+00 4.098110267439e+02 1.035310309332e+00 -2.269222294287e+00 9.760426406825e+01 1.103231125370e+01 -9.544930443406e+00 8.568938227319e-01 6.365780544410e+04
2.012530261335e+03 1.020000000000e+00 3.681507555516e+01 4.300000000000e+00 5.480315114719e+00 4.086357437318e+02 -4.146415041162e-01 -2.716695873943e+00 1.008032480619e+02 1.001309761383e+01 -8.556646803558e+00 9.343077759416e-02 6.660542502735e+04
2.012530375375e+03 1.020000000000e+00 3.681507555516e+01 4.300000000000e+00 5.363698712392e+00 4.075158606601e+02 -1.533306927925e+00 -3.111510249663e+00 1.027415884957e+02 9.054747465236e+00 -7.480332831798e+00 -5.450961592020e-01 6.936544779973e+04
2.012530489415e+03 1.020000000000e+00 3.681507555516e+01 4.300000000000e+00 5.231056537670e+00 4.062044276155e+02 -2.185394070449e+00 -3.362626547132e+00 1.028870092392e+02 8.036715483932e+00 -6.245957809711e+00 -9.397132639965e-01 7.122917171752e+04
2.012530603456e+03 1.020000000000e+00 3.681507555516e+01 4.300000000000e+00 5.082420832041e+00 4.043295967203e+02 -2.446773516704e+00 -3.452495136468e+00 1.007675057323e+02 6.846181740267e+00 -4.634230882542e+00 -1.087031378070e+00 7.180342192170e+04
2.012530717496e+03 1.020000000000e+00 3.681507555516e+01 4.300000000000e+00 4.939247001056e+00 4.020623564029e+02 -2.434429155272e+00 -3.409477804910e+00 9.782372340856e+01 5.394752258188e+00 -2.827414391575e+00 -1.103213369805e+00 7.172632430201e+04
2.012530831536e+03 1.020000000000e+00 3.681507555516e+01 4.300000000000e+00 4.814625999147e+00 3.994822715487e+02 -1.883648361949e+00 -3.057081902323e+00 9.485317488147e+01 3.622082590642e+00 -9.447161920832e-01 -9.700881785947e-01 7.134907619018e+04
2.012530945576e+03 1.020000000000e+00 3.681507555516e+01 4.300000000000e+00 4.705092723779e+00 3.965639110606e+02 -6.859141544465e-01 -2.126468138502e+00 9.207156497696e+01 1.498253453362e+00 1.040293108416e+00 -5.410757638171e-01 7.087141142185e+04
2.012531059617e+03 1.020000000000e+00 3.681507555516e+01 4.300000000000e+00 4.609692804908e+00 3.933197519942e+02 1.128613974079e+00 -8.917888371795e-01 8.933273965839e+01 -9.855418457650e-01 3.212943449818e+00 1.448772708219e-01 7.018756051560e+04
2.012531173657e+03 1.020000000000e+00 3.681507555516e+01 4.300000000000e+00 4.527716941892e+00 3.898409779434e+02 3.225825056518e+00 2.992154270555e-01 8.603117437313e+01 -3.815543421701e+00 5.577059283836e+00 8.214044579918e-01 6.882006287432e+04
2.012531287697e+03 1.020000000000e+00 3.681507555516e+01 4.300000000000e+00 4.475656873307e+00 3.862759194279e+02 5.464116923667e+00 1.268396840924e+00 8.228004584564e+01 -6.956091043268e+00 8.104027777442e+00 1.316743723617e+00 6.658260314637e+04
2.012531401737e+03 1.020000000000e+00 3.681507555516e+01 4.300000000000e+00 4.468252580304e+00 3.827392164662e+02 7.747283522377e+00 1.984929991934e+00 7.827516202662e+01 -1.032932902012e+01 1.074346158677e+01 1.624076502170e+00 6.343353455353e+04
2.012531515778e+03 1.020000000000e+00 3.681507555516e+01 4.300000000000e+00 4.476779220841e+00 3.792832619838e+02 9.993784202191e+00 2.481497751807e+00 7.381689342870e+01 -1.382130360354e+01 1.341283889296e+01 1.801306285428e+00 5.969044838788e+04
2.012531629818e+03 1.020000000000e+00 3.681507555516e+01 4.300000000000e+00 4.486806911298e+00 3.759750008771e+02 1.211212274447e+01 2.731744026441e+00 6.852158273164e+01 -1.729781835955e+01 1.605170507250e+01 1.864154580613e+00 5.526988737170e+04
2.012531743858e+03 1.020000000000e+00 3.681507555516e+01 4.300000000000e+00 4.494505364074e+00 3.729269593400e+02 1.400581479476e+01 2.789406957586e+00 6.278061309355e+01 -2.063229765245e+01 1.860940069256e+01 1.814024014872e+00 5.054326289485e+04
2.012531857898e+03 1.020000000000e+00 3.681507555516e+01 4.300000000000e+00 4.504511847087e+00 3.702176134248e+02 1.559529517384e+01 2.705992847926e+00 5.706323472900e+01 -2.372667407667e+01 2.097872817216e+01 1.604097334632e+00 4.583882010357e+04
2.012531971939e+03 1.020000000000e+00 3.681507555516e+01 4.300000000000e+00 4.524392931453e+00 3.678712696154e+02 1.682551400714e+01 2.487581224662e+00 5.179938686391e+01 -2.651097638059e+01 2.308177839019e+01 1.211588991842e+00 4.144193964051e+04
2.012532085979e+03 1.020000000000e+00 3.681507555516e+01 4.300000000000e+00 4.560386501978e+00 3.658760023997e+02 1.767192855622e+01 2.158869932052e+00 4.732954055862e+01 -2.895061529112e+01 2.489774697253e+01 6.538143053951e-01 3.758993980867e+04
2.012532200019e+03 1.020000000000e+00 3.681507555516e+01 4.300000000000e+00 4.618657107697e+00 3.642403883746e+02 1.818295397852e+01 1.864106068570e+00 4.388296019537e+01 -3.105285862506e+01 2.645913951496e+01 9.698587071844e-02 3.443159290685e+04
2.012532314059e+03 1.020000000000e+00 3.681507555516e+01 4.300000000000e+00 4.703898121533e+00 3.629515824175e+02 1.841161744729e+01 1.694979042262e+00 4.140360460448e+01 -3.283575820639e+01 2.777201555915e+01 -3.453015729355e-01 3.190817537348e+04
2.012532428100e+03 1.020000000000e+00 3.681507555516e+01 4.300000000000e+00 4.807200979168e+00 3.620716636504e+02 1.839371671767e+01 1.631291666571e+00 3.975915749456e+01 -3.433531298878e+01 2.886579193544e+01 -6.113616157931e-01 2.998531538843e+04
2.012532542140e+03 1.020000000000e+00 3.681507555516e+01 4.300000000000e+00 4.910669678896e+00 3.616399817782e+02 1.814811524217e+01 1.651665427448e+00 3.862251312530e+01 -3.558923900930e+01 2.983914167232e+01 -7.260361078166e-01 2.850241387125e+04
2.012532656180e+03 1.020000000000e+00 3.681507555516e+01 4.300000000000e+00 5.036598918385e+00 3.617452358317e+02 1.753258374770e+01 1.820799767689e+00 3.818327324387e+01 -3.662211505967e+01 3.066551044165e+01 -7.289649462350e-01 2.746967092679e+04
2.012532770220e+03 1.020000000000e+00 3.681507555516e+01 4.300000000000e+00 5.163021914870e+00 3.624776734152e+02 1.647024441799e+01 2.195823687586e+00 3.845651900772e+01 -3.743129569920e+01 3.140932159125e+01 -5.795363686766e-01 2.699007349067e+04
2.012532884261e+03 1.020000000000e+00 3.781507555516e+01 4.400000000000e+00 5.172339108698e+00 3.591512748832e+02 1.787855962699e+01 2.182765300711e+00 3.945304377992e+01 -3.629644912622e+01 3.061221774143e+01 -6.791301193302e-01 2.764483958342e+04
2.012532998301e+03 1.020000000000e+00 3.781507555516e+01 4.400000000000e+00 5.361986165378e+00 3.600837324907e+02 1.663449065743e+01 2.601428087623e+00 4.011228791576e+01 -3.714003887972e+01 3.136108046676e+01 -4.005871300469e-01 2.709623728314e+04
2.012533112341e+03 1.020000000000e+00 3.781507555516e+01 4.400000000000e+00 5.564517300003e+00 3.616889967586e+02 1.497925400852e+01 3.160077372966e+00 4.155292499557e+01 -3.777368883493e+01 3.201547945895e+01 1.694357355758e-02 2.702622158804e+04
2.012533226381e+03 1.020000000000e+00 3.781507555516e+01 4.400000000000e+00 5.778236968316e+00 3.636266007555e+02 1.303128391112e+01 3.844055294987e+00 4.345715241906e+01 -3.820740608777e+01 3.255919835106e+01 6.060096378853e-01 2.717952174529e+04
2.012533340422e+03 1.020000000000e+00 3.781507555516e+01 4.400000000000e+00 6.062678008858e+00 3.661329439449e+02 1.068660088210e+01 4.567156171455e+00 4.637255189358e+01 -3.846080270038e+01 3.285201697718e+01 1.296754887992e+00 2.762368997009e+04
2.012533454462e+03 1.020000000000e+00 3.781507555516e+01 4.400000000000e+00 6.360494288128e+00 3.689616333896e+02 8.186076278713e+00 5.261567805726e+00 4.978228685205e+01 -3.857173049910e+01 3.293204361009e+01 2.015499604198e+00 2.827259123464e+04
2.012533568502e+03 1.020000000000e+00 3.781507555516e+01 4.400000000000e+00 6.600502889305e+00 3.718115847838e+02 5.713665597247e+00 5.892866533708e+00 5.313306744972e+01 -3.858397148090e+01 3.284516026766e+01 2.688498891206e+00 2.910084895353e+04
2.012533682542e+03 1.020000000000e+00 3.781507555516e+01 4.400000000000e+00 6.741873889291e+00 3.745001634049e+02 3.372516624000e+00 6.425225990681e+00 5.614076274094e+01 -3.854287199594e+01 3.261531135594e+01 3.248320305459e+00 3.014122701250e+04
2.012533796583e+03 1.020000000000e+00 3.781507555516e+01 4.400000000000e+00 6.816943557513e+00 3.768811191229e+02 1.236574864149e+00 6.842875701764e+00 5.862288879648e+01 -3.849653181926e+01 3.222436256102e+01 3.658910455209e+00 3.117629146752e+04
2.012533910623e+03 1.020000000000e+00 3.781507555516e+01 4.400000000000e+00 6.794872008892e+00 3.788599319147e+02 -6.136691120898e-01 7.153928398212e+00 6.039076791829e+01 -3.847687272258e+01 3.169123122593e+01 3.922272807915e+00 3.224508818846e+04
2.012534024663e+03 1.020000000000e+00 3.781507555516e+01 4.400000000000e+00 6.686548687576e+00 3.804127774092e+02 -2.144864599463e+00 7.373134867164e+00 6.130691170279e+01 -3.850159243528e+01 3.110739114783e+01 4.061538846036e+00 3.325835651741e+04
2.012534138703e+03 1.020000000000e+00 3.781507555516e+01 4.400000000000e+00 6.526408924202e+00 3.815374487284e+02 -3.345818824804e+00 7.487220084229e+00 6.144746708904e+01 -3.858971383814e+01 3.051396634778e+01 4.036489628120e+00 3.413859774805e+04
2.012534252744e+03 1.020000000000e+00 3.781507555516e+01 4.400000000000e+00 6.340450786041e+00 3.821137209839e+02 -4.245126293611e+00 7.501623361520e+00 6.066602470601e+01 -3.870716107670e+01 2.984245788538e+01 3.860513924138e+00 3.467928762051e+04
2.012534366784e+03 1.020000000000e+00 3.781507555516e+01 4.400000000000e+00 6.116084532538e+00 3.822169546342e+02 -4.868351322587e+00 7.481390093059e+00 5.920067342816e+01 -3.855914606106e+01 2.930326674611e+01 3.669449634578e+00 3.505800153691e+04
2.012534480824e+03 1.020000000000e+00 3.781507555516e+01 4.400000000000e+00 6.940518112064e+00 4.057339739630e+02 -3.053138327685e+00 -9.429742244370e-01 2.975688245483e+02 -3.977386781181e+01 3.569967412449e+01 -1.593591021449e-01 1.328882228732e+05
2.012534594864e+03 1.020000000000e+00 3.781507555516e+01 4.400000000000e+00 1.399985052246e+01 5.319628760269e+02 7.255592966854e+00 -3.893715327344e+01 2.663618887679e+03 -4.684477996667e+01 8.803244892524e+01 -1.762816894025e+01 6.781616354541e+05
2.012534708905e+03 1.020000000000e+00 3.781507555516e+01 4.400000000000e+00 1.840777857810e+01 5.898398281520e+02 1.477114707786e+01 -5.394844444525e+01 4.432875536587e+03 -4.953496247581e+01 1.254065928223e+02 -2.419186086769e+01 8.723981998655e+05
2.012534822945e+03 1.020000000000e+00 3.781507555516e+01 4.400000000000e+00 1.800487627141e+01 5.940551220062e+02 1.663486590550e+01 -5.271378026757e+01 4.314135496275e+03 -4.600078981265e+01 1.250953481990e+02 -1.901684875566e+01 8.675777718409e+05
2.012534936985e+03 1.020000000000e+00 3.781507555516e+01 4.400000000000e+00 1.699849785550e+01 5.868132791306e+02 1.545690823022e+01 -4.757960051269e+01 3.835205572085e+03 -3.920509299940e+01 1.105670356199e+02 -9.537849688698e+00 8.169495589314e+05
2.012535051025e+03 1.020000000000e+00 3.781507555516e+01 4.400000000000e+00 1.668580125623e+01 5.802189227401e+02 8.397030790374e+00 -4.500387866701e+01 3.532755420653e+03 -3.388340865476e+01 7.417654138155e+01 -5.283860152608e+00 7.668461120944e+05
2.012535165066e+03 1.020000000000e+00 3.781507555516e+01 4.400000000000e+00 1.685164021630e+01 5.812047077166e+02 -7.098461063503e+00 -4.560562211570e+01 3.432276710480e+03 -3.026412315238e+01 2.056279788028e+01 -5.843379950721e+00 7.377146886490e+05
2.012535279106e+03 1.020000000000e+00 3.781507555516e+01 4.400000000000e+00 1.645188485866e+01 5.841742826840e+02 -2.267204486327e+01 -5.122388273080e+01 3.271672626928e+03 -2.819274037111e+01 -4.267345423171e+01 -1.848862697350e+01 7.203912542342e+05
2.012535393146e+03 1.020000000000e+00 3.781507555516e+01 4.400000000000e+00 1.456475816468e+01 5.840834365630e+02 -3.251825740366e+01 -5.709474391538e+01 2.775401181814e+03 -2.982842811264e+01 -9.894207713886e+01 -4.573659488385e+01 6.919695620980e+05
2.012535507186e+03 1.020000000000e+00 3.781507555516e+01 4.400000000000e+00 1.104463569936e+01 5.798168571614e+02 -3.513278061098e+01 -5.962968478100e+01 2.119013898596e+03 -4.083649183207e+01 -1.265404614792e+02 -7.726655396873e+01 7.000351479326e+05
2.012535621227e+03 1.020000000000e+00 3.871507555516e+01 4.400000000000e+00 7.947628360889e+00 5.726359353160e+02 -3.824992047297e+01 -5.416252853196e+01 1.542168967902e+03 -5.627326423775e+01 -1.274448872445e+02 -9.599556467653e+01 7.046268731387e+05
2.012535735267e+03 1.020000000000e+00 3.871507555516e+01 4.400000000000e+00 5.713642709685e+00 5.670192798420e+02 -2.872152728866e+01 -4.656803844141e+01 1.128901874230e+03 -7.986604261799e+01 -1.169176880134e+02 -1.169057479649e+02 7.145161872703e+05
2.012535849307e+03 1.020000000000e+00 3.871507555516e+01 4.400000000000e+00 4.547237230471e+00 5.616182317903e+02 -1.875336728589e+00 -4.070808122450e+01 8.271750132306e+02 -1.010006395081e+02 -9.835082930302e+01 -1.347624754504e+02 6.568042244195e+05
2.012535963347e+03 1.020000000000e+00 3.871507555516e+01 4.400000000000e+00 3.963524068493e+00 5.576873625342e+02 2.418115418218e+01 -3.753378948852e+01 5.992291673137e+02 -1.163098209683e+02 -8.429259294374e+01 -1.473826812775e+02 5.466092553632e+05
2.012536077388e+03 1.020000000000e+00 3.871507555516e+01 4.400000000000e+00 3.739021545982e+00 5.538297957072e+02 3.941517257870e+01 -3.257832379125e+01 4.369341857876e+02 -1.271183943658e+02 -7.802319777957e+01 -1.526837229188e+02 4.229495628120e+05
2.012536191428e+03 1.020000000000e+00 3.871507555516e+01 4.400000000000e+00 3.610028380782e+00 5.508544814625e+02 4.406140354682e+01 -2.571191252450e+01 3.158867726276e+02 -1.360505650093e+02 -7.844314780405e+01 -1.531670310168e+02 3.167729405211e+05
2.012536305468e+03 1.020000000000e+00 3.871507555516e+01 4.400000000000e+00 3.458776014152e+00 5.496257694306e+02 4.396030693900e+01 -1.538714969688e+01 2.153750279260e+02 -1.438563231374e+02 -8.909855283928e+01 -1.488050758929e+02 2.251728096617e+05
2.012536419508e+03 1.020000000000e+00 3.871507555516e+01 4.400000000000e+00 3.176092953152e+00 5.486879877709e+02 4.315715979246e+01 -6.884477733838e-01 1.351512202268e+02 -1.499959144349e+02 -1.055683007565e+02 -1.368486436216e+02 1.534134947476e+05
2.012536533549e+03 1.020000000000e+00 3.871507555516e+01 4.400000000000e+00 2.768200655580e+00 5.501714367243e+02 4.259084893137e+01 1.293766927113e+01 7.955579616899e+01 -1.555477913281e+02 -1.225832462268e+02 -1.208152159710e+02 1.033143968920e+05
2.012536647589e+03 1.020000000000e+00 3.871507555516e+01 4.400000000000e+00 2.337298970404e+00 5.509151469648e+02 4.439919740759e+01 2.171455006556e+01 4.462348824185e+01 -1.610197070732e+02 -1.354780563280e+02 -1.032780438188e+02 6.856158963031e+04
2.012536761629e+03 1.020000000000e+00 3.871507555516e+01 4.400000000000e+00 1.976964585804e+00 5.491457101802e+02 4.799229110967e+01 2.467687441942e+01 2.629174644469e+01 -1.666250560149e+02 -1.434508699266e+02 -8.651577389992e+01 4.797184877694e+04
2.012536875669e+03 1.020000000000e+00 3.871507555516e+01 4.400000000000e+00 1.728800432151e+00 5.439619449434e+02 5.269468293256e+01 2.323770278078e+01 1.821760854727e+01 -1.719437612446e+02 -1.467519640509e+02 -7.079796909742e+01 3.815552310376e+04
2.012536989709e+03 1.020000000000e+00 3.871507555516e+01 4.400000000000e+00 1.523606380390e+00 5.378458411414e+02 5.636529438871e+01 1.809996738120e+01 1.409244644021e+01 -1.767183971354e+02 -1.482322478875e+02 -5.552961439563e+01 3.356382090538e+04
2.012537103750e+03 1.020000000000e+00 3.871507555516e+01 4.400000000000e+00 1.327121089831e+00 5.326071866866e+02 5.766042152774e+01 1.332405469801e+01 1.141336901691e+01 -1.810669905570e+02 -1.490093310125e+02 -3.945365763968e+01 3.131174555519e+04
2.012537217790e+03 1.020000000000e+00 3.871507555516e+01 4.400000000000e+00 1.155193123457e+00 5.268149772357e+02 5.743670473192e+01 8.975086671599e+00 9.597172427867e+00 -1.850091782068e+02 -1.482045374568e+02 -2.280981723522e+01 3.028377649066e+04
2.012537331830e+03 1.020000000000e+00 3.871507555516e+01 4.400000000000e+00 1.045885827507e+00 5.200098871202e+02 5.592649015445e+01 4.770040419370e+00 8.843396599308e+00 -1.882059731100e+02 -1.457952795560e+02 -5.996288143868e+00 3.080519490795e+04
2.012537445870e+03 1.020000000000e+00 3.871507555516e+01 4.400000000000e+00 9.839959305307e-01 5.134093385364e+02 5.387818523466e+01 8.544694014149e-01 8.569835355456e+00 -1.904976600172e+02 -1.419656946982e+02 1.076116352112e+01 3.170441057944e+04
2.012537559911e+03 1.020000000000e+00 3.871507555516e+01 4.400000000000e+00 9.429283823876e-01 5.069815269910e+02 5.172969000275e+01 -2.681184334200e+00 8.499713372485e+00 -1.915898186479e+02 -1.368591770262e+02 2.724374263941e+01 3.277341414963e+04
2.012537673951e+03 1.020000000000e+00 3.871507555516e+01 4.400000000000e+00 9.101757496226e-01 4.997096108272e+02 5.019839292524e+01 -5.780884005670e+00 8.516086517200e+00 -1.914252044777e+02 -1.302226031961e+02 4.309495166198e+01 3.397238006195e+04
2.012537787991e+03 1.020000000000e+00 3.871507555516e+01 4.400000000000e+00 8.820658072454e-01 4.927153378671e+02 4.851641241905e+01 -8.410851155119e+00 8.648834695120e+00 -1.903809582849e+02 -1.226681635968e+02 5.816261452208e+01 3.556711850437e+04
2.012537902031e+03 1.020000000000e+00 3.871507555516e+01 4.400000000000e+00 8.556086501339e-01 4.863730527818e+02 4.678907053138e+01 -1.033922534242e+01 8.796803018855e+00 -1.887600106199e+02 -1.143985107673e+02 7.239713375795e+01 3.730528598306e+04
2.012538016072e+03 1.020000000000e+00 3.871507555516e+01 4.400000000000e+00 8.272396422782e-01 4.803586587268e+02 4.581844919476e+01 -1.175008196152e+01 8.675607443876e+00 -1.863776917463e+02 -1.052952217919e+02 8.542768248363e+01 3.806407859041e+04
2.012538130112e+03 1.020000000000e+00 3.871507555516e+01 4.400000000000e+00 7.986578920435e-01 4.746857517690e+02 4.542208149357e+01 -1.282646904477e+01 8.410885596935e+00 -1.833978196418e+02 -9.565557151391e+01 9.703460421218e+01 3.821011869467e+04
2.012538244152e+03 1.020000000000e+00 3.871507555516e+01 4.400000000000e+00 7.708817714492e-01 4.693980355853e+02 4.560414982679e+01 -1.354360115629e+01 8.069550917656e+00 -1.800456863468e+02 -8.575987705749e+01 1.072236560214e+02 3.797293321471e+04
2.012538358192e+03 1.020000000000e+00 3.971507555516e+01 4.500000000000e+00 7.705113232465e-01 4.563458191345e+02 4.642861880376e+01 -1.806241982052e+01 8.428128684794e+00 -1.742555204606e+02 -7.694135953413e+01 1.274158753589e+02 3.953662691523e+04
2.012538472233e+03 1.020000000000e+00 3.971507555516e+01 4.500000000000e+00 7.426828548904e-01 4.518384792973e+02 4.822307406403e+01 -1.794604376945e+01 7.557470309201e+00 -1.676975737684e+02 -6.666272868147e+01 1.346073445539e+02 3.686996762272e+04
2.012538586273e+03 1.020000000000e+00 3.971507555516e+01 4.500000000000e+00 7.195175147458e-01 4.479810817533e+02 5.002343151485e+01 -1.781888684813e+01 6.815950704302e+00 -1.607161480659e+02 -5.692769947784e+01 1.403451929535e+02 3.434286189318e+04
2.012538700313e+03 1.020000000000e+00 3.971507555516e+01 4.500000000000e+00 6.985220630389e-01 4.446526983871e+02 5.179193913737e+01 -1.782607769206e+01 6.288090216823e+00 -1.536283840022e+02 -4.789176461307e+01 1.446759202318e+02 3.263344503789e+04
2.012538814353e+03 1.020000000000e+00 3.971507555516e+01 4.500000000000e+00 6.791114351392e-01 4.417855667928e+02 5.337618459350e+01 -1.815478920793e+01 5.962526066926e+00 -1.465796806685e+02 -3.962943782472e+01 1.477140379051e+02 3.182526685359e+04
2.012538928394e+03 1.020000000000e+00 3.971507555516e+01 4.500000000000e+00 6.575225149067e-01 4.394963546827e+02 5.469257205695e+01 -1.896411190461e+01 5.731193661295e+00 -1.397321008677e+02 -3.214917342914e+01 1.495764177852e+02 3.159272806123e+04
2.012539042434e+03 1.020000000000e+00 3.971507555516e+01 4.500000000000e+00 6.331246323643e-01 4.375665002509e+02 5.569999285136e+01 -2.023023543217e+01 5.549693621896e+00 -1.332075355149e+02 -2.540903693024e+01 1.504714993232e+02 3.177771331034e+04
2.012539156474e+03 1.020000000000e+00 3.971507555516e+01 4.500000000000e+00 6.027951317853e-01 4.357542269754e+02 5.668481941295e+01 -2.163802087721e+01 5.444888859105e+00 -1.271469171223e+02 -1.933893102175e+01 1.506479464724e+02 3.278064041790e+04
2.012539270514e+03 1.020000000000e+00 3.971507555516e+01 4.500000000000e+00 5.655152430685e-01 4.340332827586e+02 5.785124444739e+01 -2.313925864398e+01 5.381125503376e+00 -1.215218191264e+02 -1.386952883917e+01 1.502430993289e+02 3.454155829584e+04
2.012539384555e+03 1.020000000000e+00 3.971507555516e+01 4.500000000000e+00 5.287095679902e-01 4.322828846207e+02 5.934875980815e+01 -2.488362274960e+01 5.276322538811e+00 -1.162951154104e+02 -8.970541350766e+00 1.493842536895e+02 3.622014288230e+04
2.012539498595e+03 1.020000000000e+00 3.971507555516e+01 4.500000000000e+00 4.935549111707e-01 4.306194427764e+02 6.136677115521e+01 -2.686234330575e+01 5.121281200648e+00 -1.114583557690e+02 -4.624733652203e+00 1.481595590078e+02 3.765045308398e+04
2.012539612635e+03 1.020000000000e+00 3.971507555516e+01 4.500000000000e+00 4.600151627195e-01 4.289315012723e+02 6.374158182521e+01 -2.891174859125e+01 4.908381041187e+00 -1.070204849544e+02 -7.231996139980e-01 1.466642679517e+02 3.870352663465e+04
2.012539726675e+03 1.020000000000e+00 3.971507555516e+01 4.500000000000e+00 4.280511347998e-01 4.272126710038e+02 6.626793779943e+01 -3.097950675725e+01 4.599646829910e+00 -1.029744604799e+02 2.828778149778e+00 1.450080898850e+02 3.896447052540e+04
2.012539840716e+03 1.020000000000e+00 3.971507555516e+01 4.500000000000e+00 3.981080935356e-01 4.254277228760e+02 6.848317648323e+01 -3.303011748828e+01 4.271963067494e+00 -9.923408498824e+01 6.071423653504e+00 1.432218304778e+02 3.890035367624e+04
2.012539954756e+03 1.020000000000e+00 3.971507555516e+01 4.500000000000e+00 3.698405353949e-01 4.235370611622e+02 7.000211788665e+01 -3.489915259628e+01 3.967983762788e+00 -9.568895604659e+01 9.116686726144e+00 1.413246348526e+02 3.889332413812e+04
2.012540068796e+03 1.020000000000e+00 3.971507555516e+01 4.500000000000e+00 3.431712301569e-01 4.215795177441e+02 7.070250756473e+01 -3.643072519987e+01 3.736513552364e+00 -9.228852674449e+01 1.210024029940e+01 1.393386039482e+02 3.947806965021e+04
2.012540182836e+03 1.020000000000e+00 3.971507555516e+01 4.500000000000e+00 3.166325045720e-01 4.195070841582e+02 7.063136692156e+01 -3.761442252723e+01 3.587015927160e+00 -8.908484340600e+01 1.520916110746e+01 1.372906903394e+02 4.109355151040e+04
2.012540296877e+03 1.020000000000e+00 3.971507555516e+01 4.500000000000e+00 2.912388613471e-01 4.170767150112e+02 6.942561343079e+01 -3.814205090090e+01 3.566261031549e+00 -8.609740101858e+01 1.875536406532e+01 1.351291850238e+02 4.441954858618e+04
2.012540410917e+03 1.020000000000e+00 3.971507555516e+01 4.500000000000e+00 2.731479377027e-01 4.138096385027e+02 6.595561924929e+01 -3.757234746063e+01 3.843452527283e+00 -8.315303314373e+01 2.309390799820e+01 1.327486193848e+02 5.101587383760e+04
2.012540524957e+03 1.020000000000e+00 3.971507555516e+01 4.500000000000e+00 2.606270906699e-01 4.098924487076e+02 5.900050992829e+01 -3.650342682695e+01 4.381141676329e+00 -8.001843747732e+01 2.823369647542e+01 1.301512822203e+02 6.092563291040e+04
2.012540638997e+03 1.020000000000e+00 3.971507555516e+01 4.500000000000e+00 2.512877631573e-01 4.051662461266e+02 4.976970109315e+01 -3.482717702262e+01 4.940730259020e+00 -7.644825317852e+01 3.419894764164e+01 1.272540158460e+02 7.126701425589e+04
2.012540753038e+03 1.020000000000e+00 3.971507555516e+01 4.500000000000e+00 2.438592421340e-01 3.996343822452e+02 3.913922305455e+01 -3.160086147799e+01 5.375092337893e+00 -7.246865864610e+01 4.073381628467e+01 1.240621471189e+02 7.991991485223e+04
2.012540867078e+03 1.020000000000e+00 3.971507555516e+01 4.500000000000e+00 2.385113180554e-01 3.937768845193e+02 2.886892384280e+01 -2.756990877709e+01 5.598081750113e+00 -6.822124380282e+01 4.749566448840e+01 1.204939056545e+02 8.522859594299e+04
2.012540981118e+03 1.020000000000e+00 3.971507555516e+01 4.500000000000e+00 2.325918038935e-01 3.878434681954e+02 2.078265077927e+01 -2.283416231011e+01 5.574786880466e+00 -6.388083799952e+01 5.393499014859e+01 1.166584221037e+02 8.713705878425e+04
2.012541095158e+03 1.020000000000e+00 4.061507555516e+01 4.600000000000e+00 2.471100434369e-01 3.780403302387e+02 1.335564136720e+01 -1.735216376043e+01 4.938211087347e+00 -5.263626319010e+01 6.256434023545e+01 1.155465449848e+02 7.299151606091e+04
2.012541209199e+03 1.020000000000e+00 4.061507555516e+01 4.600000000000e+00 2.471930923003e-01 3.742700508123e+02 1.198758674017e+01 -1.398258191958e+01 4.623429014996e+00 -4.867799345932e+01 6.682554024923e+01 1.113507879711e+02 6.839607076461e+04
2.012541323239e+03 1.020000000000e+00 4.061507555516e+01 4.600000000000e+00 2.542769654882e-01 3.716658872889e+02 1.269399649729e+01 -1.191431083534e+01 4.321051932304e+00 -4.510125390083e+01 7.006473299569e+01 1.073365760429e+02 6.215102016770e+04
2.012541437279e+03 1.020000000000e+00 4.061507555516e+01 4.600000000000e+00 2.698931670904e-01 3.700484328928e+02 1.559516906908e+01 -1.045179357213e+01 4.094658835490e+00 -4.200416845403e+01 7.250118131630e+01 1.035080903783e+02 5.550174282200e+04
2.012541551319e+03 1.020000000000e+00 4.061507555516e+01 4.600000000000e+00 2.926476848747e-01 3.690073498725e+02 1.944487548858e+01 -8.712728496345e+00 3.958468106132e+00 -3.938628358460e+01 7.425597563624e+01 9.985155209640e+01 4.950673113705e+04
2.012541665360e+03 1.020000000000e+00 4.061507555516e+01 4.600000000000e+00 3.188359031899e-01 3.682919303152e+02 2.350317565395e+01 -6.627677382399e+00 3.875790330218e+00 -3.718706727385e+01 7.555861373041e+01 9.631678456019e+01 4.452353115458e+04
2.012541779400e+03 1.020000000000e+00 4.061507555516e+01 4.600000000000e+00 3.441868449759e-01 3.675133902943e+02 2.765393534959e+01 -4.382528811009e+00 3.814879554666e+00 -3.537113444236e+01 7.655691685600e+01 9.290822464839e+01 4.063677410308e+04
2.012541893440e+03 1.020000000000e+00 4.061507555516e+01 4.600000000000e+00 3.633834600680e-01 3.665408956807e+02 3.134911425233e+01 -1.997252624438e+00 3.765883148568e+00 -3.391812442322e+01 7.731663143330e+01 8.972662074125e+01 3.800098574447e+04
2.012542007480e+03 1.020000000000e+00 4.061507555516e+01 4.600000000000e+00 3.725110323106e-01 3.654178269324e+02 3.437831300554e+01 1.855363424217e-01 3.731101839700e+00 -3.271801359793e+01 7.789838110108e+01 8.672691791026e+01 3.670154164359e+04
2.012542121521e+03 1.020000000000e+00 4.061507555516e+01 4.600000000000e+00 3.737072300693e-01 3.642653688557e+02 3.675349623339e+01 1.786288951203e+00 3.722565801346e+00 -3.169842259036e+01 7.834503407675e+01 8.385764423978e+01 3.650719599852e+04
2.012542235561e+03 1.020000000000e+00 4.061507555516e+01 4.600000000000e+00 3.686081932651e-01 3.631379045089e+02 3.869806270446e+01 2.556030832963e+00 3.839767013844e+00 -3.082656687976e+01 7.863259868187e+01 8.113792088055e+01 3.811107378533e+04
2.012542349601e+03 1.020000000000e+00 4.061507555516e+01 4.600000000000e+00 3.599922135186e-01 3.622444936029e+02 4.008549739563e+01 2.390514146842e+00 4.501287935249e+00 -3.008348892428e+01 7.868059851456e+01 7.860700223131e+01 4.569634206423e+04
2.012542463641e+03 1.020000000000e+00 4.061507555516e+01 4.600000000000e+00 3.465726062220e-01 3.621217455042e+02 4.020374141765e+01 5.815983548917e-01 6.671988030731e+00 -2.945955251770e+01 7.837187955496e+01 7.627087016740e+01 7.045081476425e+04
2.012542577682e+03 1.020000000000e+00 4.061507555516e+01 4.600000000000e+00 3.263368390179e-01 3.629446550969e+02 3.840751395250e+01 -4.532551248076e+00 1.040186849472e+01 -2.903331815273e+01 7.772010295032e+01 7.406708515596e+01 1.164726831786e+05
2.012542691722e+03 1.020000000000e+00 4.061507555516e+01 4.600000000000e+00 3.064141760935e-01 3.654387151506e+02 3.250085278341e+01 -1.169512701375e+01 1.488964722032e+01 -2.876735600194e+01 7.659680005256e+01 7.217877372402e+01 1.768665269914e+05