VARIABLES="time" "Distance" "lon" "lat" "density" "Vx" "Vy" "Vz" "p" "Bx" "By" "Bz" "T"
ZONE
DT=(DOUBLE DOUBLE DOUBLE DOUBLE DOUBLE DOUBLE DOUBLE DOUBLE DOUBLE DOUBLE DOUBLE DOUBLE DOUBLE )
2.012529234973e+03 1.020000000000e+00 3.591507555516e+01 4.200000000000e+00 3.652711505346e+00 4.177684221488e+02 7.070546155698e+00 -2.495022167756e+00 5.448854049228e+01 2.589592908127e+01 -8.701723017045e+00 -1.704747534736e+00 5.393331811807e+04
2.012529349013e+03 1.020000000000e+00 3.591507555516e+01 4.200000000000e+00 3.903202833374e+00 4.158196115199e+02 7.340565587187e+00 -1.329583821007e+00 5.995003876155e+01 2.288904737657e+01 -8.715980294206e+00 -5.343045652393e-01 5.552091706599e+04
2.012529463053e+03 1.020000000000e+00 3.591507555516e+01 4.200000000000e+00 4.208302510863e+00 4.143577701154e+02 7.379797602364e+00 -4.683467205378e-01 6.683595230242e+01 1.979479978681e+01 -8.630231237902e+00 4.775235883051e-01 5.741999675801e+04
2.012529577093e+03 1.020000000000e+00 3.591507555516e+01 4.200000000000e+00 4.521065477482e+00 4.130516063724e+02 7.252663438103e+00 3.731898310541e-02 7.409478726903e+01 1.679155663372e+01 -8.473536063887e+00 1.174904151339e+00 5.927367953126e+04
2.012529691134e+03 1.020000000000e+00 3.591507555516e+01 4.200000000000e+00 4.810908225710e+00 4.117652850988e+02 6.690424865382e+00 2.137844398206e-01 8.097763615994e+01 1.409177881491e+01 -8.299599059344e+00 1.511862639614e+00 6.089916541255e+04
2.012529805174e+03 1.020000000000e+00 3.591507555516e+01 4.200000000000e+00 5.066306087800e+00 4.104882391854e+02 5.506774891593e+00 1.302762661278e-01 8.715613141516e+01 1.184854255748e+01 -8.124906680124e+00 1.636758503909e+00 6.226142857226e+04
2.012529919214e+03 1.020000000000e+00 3.591507555516e+01 4.200000000000e+00 5.278334277020e+00 4.092336498352e+02 3.901115525303e+00 -3.146558901171e-01 9.236497109124e+01 1.010127823092e+01 -7.946145870004e+00 1.617046144366e+00 6.334727199225e+04
2.012530033254e+03 1.020000000000e+00 3.591507555516e+01 4.200000000000e+00 5.438415091503e+00 4.079879198204e+02 2.231460108717e+00 -9.870429345143e-01 9.657256115127e+01 8.782367248054e+00 -7.678240813423e+00 1.440013352031e+00 6.429240254744e+04
2.012530147295e+03 1.020000000000e+00 3.681507555516e+01 4.300000000000e+00 5.551844427043e+00 4.098110267439e+02 1.035310309332e+00 -2.269222294287e+00 9.760426406825e+01 1.103231125370e+01 -9.544930443406e+00 8.568938227319e-01 6.365780544410e+04
2.012530261335e+03 1.020000000000e+00 3.681507555516e+01 4.300000000000e+00 5.480315114719e+00 4.086357437318e+02 -4.146415041162e-01 -2.716695873943e+00 1.008032480619e+02 1.001309761383e+01 -8.556646803558e+00 9.343077759416e-02 6.660542502735e+04
2.012530375375e+03 1.020000000000e+00 3.681507555516e+01 4.300000000000e+00 5.363698712392e+00 4.075158606601e+02 -1.533306927925e+00 -3.111510249663e+00 1.027415884957e+02 9.054747465236e+00 -7.480332831798e+00 -5.450961592020e-01 6.936544779973e+04
2.012530489415e+03 1.020000000000e+00 3.681507555516e+01 4.300000000000e+00 5.231056537670e+00 4.062044276155e+02 -2.185394070449e+00 -3.362626547132e+00 1.028870092392e+02 8.036715483932e+00 -6.245957809711e+00 -9.397132639965e-01 7.122917171752e+04
2.012530603456e+03 1.020000000000e+00 3.681507555516e+01 4.300000000000e+00 5.082420832041e+00 4.043295967203e+02 -2.446773516704e+00 -3.452495136468e+00 1.007675057323e+02 6.846181740267e+00 -4.634230882542e+00 -1.087031378070e+00 7.180342192170e+04
2.012530717496e+03 1.020000000000e+00 3.681507555516e+01 4.300000000000e+00 4.939247001056e+00 4.020623564029e+02 -2.434429155272e+00 -3.409477804910e+00 9.782372340856e+01 5.394752258188e+00 -2.827414391575e+00 -1.103213369805e+00 7.172632430202e+04
2.012530831536e+03 1.020000000000e+00 3.681507555516e+01 4.300000000000e+00 4.814625999147e+00 3.994822715487e+02 -1.883648361949e+00 -3.057081902323e+00 9.485317488146e+01 3.622082590642e+00 -9.447161920832e-01 -9.700881785947e-01 7.134907619018e+04
2.012530945576e+03 1.020000000000e+00 3.681507555516e+01 4.300000000000e+00 4.705092723779e+00 3.965639110606e+02 -6.859141544466e-01 -2.126468138502e+00 9.207156497696e+01 1.498253453362e+00 1.040293108416e+00 -5.410757638171e-01 7.087141142185e+04
2.012531059617e+03 1.020000000000e+00 3.681507555516e+01 4.300000000000e+00 4.609692804908e+00 3.933197519942e+02 1.128613974079e+00 -8.917888371794e-01 8.933273965839e+01 -9.855418457650e-01 3.212943449818e+00 1.448772708219e-01 7.018756051560e+04
2.012531173657e+03 1.020000000000e+00 3.681507555516e+01 4.300000000000e+00 4.527716941892e+00 3.898409779434e+02 3.225825056519e+00 2.992154270555e-01 8.603117437313e+01 -3.815543421701e+00 5.577059283836e+00 8.214044579918e-01 6.882006287432e+04
2.012531287697e+03 1.020000000000e+00 3.681507555516e+01 4.300000000000e+00 4.475656873307e+00 3.862759194279e+02 5.464116923667e+00 1.268396840924e+00 8.228004584564e+01 -6.956091043268e+00 8.104027777443e+00 1.316743723617e+00 6.658260314637e+04
2.012531401737e+03 1.020000000000e+00 3.681507555516e+01 4.300000000000e+00 4.468252580304e+00 3.827392164662e+02 7.747283522377e+00 1.984929991934e+00 7.827516202662e+01 -1.032932902012e+01 1.074346158677e+01 1.624076502170e+00 6.343353455353e+04
2.012531515778e+03 1.020000000000e+00 3.681507555516e+01 4.300000000000e+00 4.476779220841e+00 3.792832619838e+02 9.993784202190e+00 2.481497751807e+00 7.381689342869e+01 -1.382130360354e+01 1.341283889296e+01 1.801306285428e+00 5.969044838787e+04
2.012531629818e+03 1.020000000000e+00 3.681507555516e+01 4.300000000000e+00 4.486806911298e+00 3.759750008771e+02 1.211212274447e+01 2.731744026441e+00 6.852158273163e+01 -1.729781835955e+01 1.605170507250e+01 1.864154580613e+00 5.526988737169e+04
2.012531743858e+03 1.020000000000e+00 3.681507555516e+01 4.300000000000e+00 4.494505364074e+00 3.729269593400e+02 1.400581479476e+01 2.789406957587e+00 6.278061309355e+01 -2.063229765245e+01 1.860940069257e+01 1.814024014872e+00 5.054326289485e+04
2.012531857898e+03 1.020000000000e+00 3.681507555516e+01 4.300000000000e+00 4.504511847086e+00 3.702176134248e+02 1.559529517384e+01 2.705992847926e+00 5.706323472898e+01 -2.372667407667e+01 2.097872817217e+01 1.604097334633e+00 4.583882010356e+04
2.012531971939e+03 1.020000000000e+00 3.681507555516e+01 4.300000000000e+00 4.524392931453e+00 3.678712696154e+02 1.682551400714e+01 2.487581224662e+00 5.179938686390e+01 -2.651097638059e+01 2.308177839019e+01 1.211588991842e+00 4.144193964050e+04
2.012532085979e+03 1.020000000000e+00 3.681507555516e+01 4.300000000000e+00 4.560386501978e+00 3.658760023997e+02 1.767192855622e+01 2.158869932052e+00 4.732954055862e+01 -2.895061529112e+01 2.489774697253e+01 6.538143053952e-01 3.758993980867e+04
2.012532200019e+03 1.020000000000e+00 3.681507555516e+01 4.300000000000e+00 4.618657107697e+00 3.642403883746e+02 1.818295397852e+01 1.864106068570e+00 4.388296019537e+01 -3.105285862506e+01 2.645913951496e+01 9.698587071848e-02 3.443159290686e+04
2.012532314059e+03 1.020000000000e+00 3.681507555516e+01 4.300000000000e+00 4.703898121533e+00 3.629515824175e+02 1.841161744729e+01 1.694979042262e+00 4.140360460448e+01 -3.283575820639e+01 2.777201555915e+01 -3.453015729355e-01 3.190817537348e+04
2.012532428100e+03 1.020000000000e+00 3.681507555516e+01 4.300000000000e+00 4.807200979168e+00 3.620716636504e+02 1.839371671767e+01 1.631291666571e+00 3.975915749455e+01 -3.433531298878e+01 2.886579193544e+01 -6.113616157931e-01 2.998531538843e+04
2.012532542140e+03 1.020000000000e+00 3.681507555516e+01 4.300000000000e+00 4.910669678895e+00 3.616399817782e+02 1.814811524217e+01 1.651665427447e+00 3.862251312530e+01 -3.558923900930e+01 2.983914167232e+01 -7.260361078166e-01 2.850241387125e+04
2.012532656180e+03 1.020000000000e+00 3.681507555516e+01 4.300000000000e+00 5.036598918385e+00 3.617452358317e+02 1.753258374770e+01 1.820799767688e+00 3.818327324388e+01 -3.662211505967e+01 3.066551044165e+01 -7.289649462350e-01 2.746967092680e+04
2.012532770220e+03 1.020000000000e+00 3.681507555516e+01 4.300000000000e+00 5.163021914870e+00 3.624776734152e+02 1.647024441799e+01 2.195823687586e+00 3.845651900773e+01 -3.743129569920e+01 3.140932159125e+01 -5.795363686764e-01 2.699007349068e+04
2.012532884261e+03 1.020000000000e+00 3.781507555516e+01 4.400000000000e+00 5.172339108698e+00 3.591512748832e+02 1.787855962699e+01 2.182765300711e+00 3.945304377993e+01 -3.629644912622e+01 3.061221774143e+01 -6.791301193301e-01 2.764483958342e+04
2.012532998301e+03 1.020000000000e+00 3.781507555516e+01 4.400000000000e+00 5.361986165388e+00 3.600837324908e+02 1.663449065746e+01 2.601428087621e+00 4.011228791585e+01 -3.714003887972e+01 3.136108046682e+01 -4.005871300466e-01 2.709623728315e+04
2.012533112341e+03 1.020000000000e+00 3.781507555516e+01 4.400000000000e+00 5.564517299876e+00 3.616889967582e+02 1.497925400849e+01 3.160077373184e+00 4.155292499476e+01 -3.777368883492e+01 3.201547945853e+01 1.694357379599e-02 2.702622158816e+04
2.012533226381e+03 1.020000000000e+00 3.781507555516e+01 4.400000000000e+00 5.778236969963e+00 3.636266007580e+02 1.303128391025e+01 3.844055293324e+00 4.345715242579e+01 -3.820740608707e+01 3.255919835353e+01 6.060096362160e-01 2.717952174149e+04
2.012533340422e+03 1.020000000000e+00 3.781507555516e+01 4.400000000000e+00 6.062678004777e+00 3.661329439557e+02 1.068660088384e+01 4.567156169558e+00 4.637255188724e+01 -3.846080271259e+01 3.285201700120e+01 1.296754894583e+00 2.762368998666e+04
2.012533454462e+03 1.020000000000e+00 3.781507555516e+01 4.400000000000e+00 6.360494192289e+00 3.689616329602e+02 8.186076369743e+00 5.261567906548e+00 4.978228592725e+01 -3.857173040776e+01 3.293204356711e+01 2.015499684544e+00 2.827259113389e+04
2.012533568502e+03 1.020000000000e+00 3.781507555516e+01 4.400000000000e+00 6.600503624054e+00 3.718115875933e+02 5.713664855587e+00 5.892864486821e+00 5.313307440297e+01 -3.858397128598e+01 3.284516161750e+01 2.688496698304e+00 2.910084950574e+04
2.012533682542e+03 1.020000000000e+00 3.781507555516e+01 4.400000000000e+00 6.741871346773e+00 3.745001528731e+02 3.372512747457e+00 6.425225305603e+00 5.614073349566e+01 -3.854287827831e+01 3.261530545269e+01 3.248321130340e+00 3.014122285883e+04
2.012533796583e+03 1.020000000000e+00 3.781507555516e+01 4.400000000000e+00 6.816922701502e+00 3.768809947471e+02 1.236629374144e+00 6.842925849812e+00 5.862257892970e+01 -3.849649038398e+01 3.222433138402e+01 3.658931898158e+00 3.117621645928e+04
2.012533910623e+03 1.020000000000e+00 3.781507555516e+01 4.400000000000e+00 6.794990104167e+00 3.788606939498e+02 -6.138607416002e-01 7.153760692968e+00 6.039310670042e+01 -3.847693429972e+01 3.169151992966e+01 3.922110618671e+00 3.224576585909e+04
2.012534024663e+03 1.020000000000e+00 3.781507555516e+01 4.400000000000e+00 6.686628107039e+00 3.804119450492e+02 -2.146187157616e+00 7.372502790098e+00 6.130590793102e+01 -3.850323460190e+01 3.110572319597e+01 4.061078019771e+00 3.325727633752e+04
2.012534138703e+03 1.020000000000e+00 3.781507555516e+01 4.400000000000e+00 6.525550102687e+00 3.815224081735e+02 -3.341706083332e+00 7.497736872024e+00 6.141372131751e+01 -3.857845913984e+01 3.050243963235e+01 4.047551170815e+00 3.412487400060e+04
2.012534252744e+03 1.020000000000e+00 3.781507555516e+01 4.400000000000e+00 6.350501795842e+00 3.822051415543e+02 -4.233849216048e+00 7.488818928687e+00 6.085834368165e+01 -3.869986599494e+01 2.988242339719e+01 3.853377667397e+00 3.473431006299e+04
2.012534366784e+03 1.020000000000e+00 3.781507555516e+01 4.400000000000e+00 6.150460441054e+00 3.824354890728e+02 -4.853121073549e+00 7.345957684788e+00 5.957800150099e+01 -3.886934657120e+01 2.932806776033e+01 3.514707811018e+00 3.507931658455e+04
2.012534480824e+03 1.020000000000e+00 3.781507555516e+01 4.400000000000e+00 5.909122304886e+00 3.819403708950e+02 -5.213268188136e+00 7.254882692283e+00 5.724074856624e+01 -3.887644620756e+01 2.885658657602e+01 3.183806635835e+00 3.503747965284e+04
2.012534594864e+03 1.020000000000e+00 3.781507555516e+01 4.400000000000e+00 5.870844709432e+00 3.852038177398e+02 -5.056458505611e+00 5.586899722402e+00 7.984826535234e+01 -3.894969576130e+01 2.952227559004e+01 2.069686086236e+00 4.826141528144e+04
2.012534708905e+03 1.020000000000e+00 3.781507555516e+01 4.400000000000e+00 9.282168322918e+00 4.623229107839e+02 3.532015452337e+00 -1.935658151028e+01 1.024533626665e+03 -4.336028825388e+01 5.740569940599e+01 -9.721094501635e+00 3.689854397450e+05
2.012534822945e+03 1.020000000000e+00 3.781507555516e+01 4.400000000000e+00 1.647926587218e+01 5.627602153950e+02 1.539351763062e+01 -4.865703206415e+01 3.402955080409e+03 -4.952330669373e+01 1.142315683212e+02 -2.345815163491e+01 7.470500811377e+05
2.012534936985e+03 1.020000000000e+00 3.781507555516e+01 4.400000000000e+00 1.795016562160e+01 5.823837639078e+02 2.006746092030e+01 -5.233753753334e+01 3.898552697755e+03 -4.851596939436e+01 1.250349096227e+02 -2.192086749622e+01 7.866667161235e+05
2.012535051025e+03 1.020000000000e+00 3.781507555516e+01 4.400000000000e+00 1.748331679045e+01 5.803611965258e+02 2.015085320180e+01 -4.908252594543e+01 3.662384416609e+03 -4.290754762013e+01 1.189778575559e+02 -1.348498853310e+01 7.584188515871e+05
2.012535165066e+03 1.020000000000e+00 3.781507555516e+01 4.400000000000e+00 1.687480090104e+01 5.716579431654e+02 1.544903192094e+01 -4.461070228244e+01 3.291986246027e+03 -3.645435382049e+01 9.169702605270e+01 -6.550905758474e+00 7.065090037919e+05
2.012535279106e+03 1.020000000000e+00 3.781507555516e+01 4.400000000000e+00 1.677211401049e+01 5.680815568786e+02 1.422701764278e+00 -4.332608715625e+01 3.113659157371e+03 -3.196354722651e+01 4.824659985101e+01 -4.744964321599e+00 6.723648747090e+05
2.012535393146e+03 1.020000000000e+00 3.781507555516e+01 4.400000000000e+00 1.662781206003e+01 5.688820386763e+02 -1.595652840351e+01 -4.517440101117e+01 2.996047038952e+03 -2.949644249669e+01 -4.572661862312e+00 -8.494930020447e+00 6.526652534700e+05
2.012535507186e+03 1.020000000000e+00 3.781507555516e+01 4.400000000000e+00 1.565999865070e+01 5.694529023726e+02 -3.038078768315e+01 -5.125689045805e+01 2.718633547812e+03 -2.904634359116e+01 -6.026567613384e+01 -2.775947596834e+01 6.290587181298e+05
2.012535621227e+03 1.020000000000e+00 3.871507555516e+01 4.400000000000e+00 1.340028126033e+01 5.659625809441e+02 -3.946435120233e+01 -5.344754284187e+01 2.194742047917e+03 -3.082818346997e+01 -9.885120383787e+01 -4.707437744625e+01 5.944833372624e+05
2.012535735267e+03 1.020000000000e+00 3.871507555516e+01 4.400000000000e+00 9.623888093958e+00 5.622623441580e+02 -4.194926466686e+01 -5.622190448688e+01 1.635206538949e+03 -4.365759429808e+01 -1.190775758158e+02 -7.973393041172e+01 6.178597706231e+05
2.012535849307e+03 1.020000000000e+00 3.871507555516e+01 4.400000000000e+00 6.438868343976e+00 5.556955931143e+02 -4.014249621043e+01 -5.337673670746e+01 1.153968334071e+03 -6.236564526994e+01 -1.172380030308e+02 -1.052186134336e+02 6.502711987380e+05
2.012535963347e+03 1.020000000000e+00 3.871507555516e+01 4.400000000000e+00 4.774882864866e+00 5.513432001896e+02 -2.891810103671e+01 -4.558319030811e+01 8.558536964888e+02 -8.149857475823e+01 -1.074760530565e+02 -1.208895558361e+02 6.478258837294e+05
2.012536077388e+03 1.020000000000e+00 3.871507555516e+01 4.400000000000e+00 3.926051891046e+00 5.473779542646e+02 -4.704635113724e+00 -3.832461668323e+01 6.352989166844e+02 -9.796425363325e+01 -9.358096154921e+01 -1.333389981763e+02 5.844536967318e+05
2.012536191428e+03 1.020000000000e+00 3.871507555516e+01 4.400000000000e+00 3.565007466003e+00 5.451685309940e+02 1.653339199046e+01 -3.200941368140e+01 4.726241100032e+02 -1.102082441024e+02 -8.436617421921e+01 -1.417925463524e+02 4.795091726424e+05
2.012536305468e+03 1.020000000000e+00 3.871507555516e+01 4.400000000000e+00 3.412445809464e+00 5.438572098426e+02 2.966125840272e+01 -2.458038149621e+01 3.523607829077e+02 -1.195572610316e+02 -8.066627262738e+01 -1.455725611183e+02 3.738076261326e+05
2.012536419508e+03 1.020000000000e+00 3.871507555516e+01 4.400000000000e+00 3.318881793209e+00 5.437626486482e+02 3.666009373340e+01 -1.699945689685e+01 2.541377884915e+02 -1.278278645228e+02 -8.366552719816e+01 -1.457696690735e+02 2.771357819349e+05
2.012536533549e+03 1.020000000000e+00 3.871507555516e+01 4.400000000000e+00 3.146098341800e+00 5.454340411672e+02 3.926462907899e+01 -6.629953570173e+00 1.665344259934e+02 -1.345043538471e+02 -9.635936511535e+01 -1.414353800346e+02 1.909601579136e+05
2.012536647589e+03 1.020000000000e+00 3.871507555516e+01 4.400000000000e+00 2.758910236240e+00 5.463818987407e+02 4.052197813707e+01 6.133703423689e+00 9.633645096188e+01 -1.393164269298e+02 -1.129350723989e+02 -1.298009236373e+02 1.254679320549e+05
2.012536761629e+03 1.020000000000e+00 3.871507555516e+01 4.400000000000e+00 2.302762064775e+00 5.460011075754e+02 4.252467473586e+01 1.696880167604e+01 5.039544240559e+01 -1.445902258306e+02 -1.277478806660e+02 -1.136921933151e+02 7.857442894972e+04
2.012536875669e+03 1.020000000000e+00 3.871507555516e+01 4.400000000000e+00 1.958979380103e+00 5.444713173408e+02 4.466490409588e+01 2.283935312189e+01 2.643249639975e+01 -1.505811448530e+02 -1.389492929955e+02 -9.706295886449e+01 4.862787224157e+04
2.012536989709e+03 1.020000000000e+00 3.871507555516e+01 4.400000000000e+00 1.728219276203e+00 5.402203700198e+02 4.638404970596e+01 2.445003453767e+01 1.668117479840e+01 -1.563511821574e+02 -1.457206252585e+02 -8.128140099533e+01 3.490271592018e+04
2.012537103750e+03 1.020000000000e+00 3.871507555516e+01 4.400000000000e+00 1.521523365706e+00 5.327784099887e+02 4.914758178441e+01 2.250439666570e+01 1.239080733457e+01 -1.618573204811e+02 -1.488170125315e+02 -6.680491573055e+01 2.949294190232e+04
2.012537217790e+03 1.020000000000e+00 3.871507555516e+01 4.400000000000e+00 1.328510152377e+00 5.252693343397e+02 5.249010504403e+01 1.805905412701e+01 9.798477481972e+00 -1.671858695839e+02 -1.502655569239e+02 -5.313527978757e+01 2.674860562034e+04
2.012537331830e+03 1.020000000000e+00 3.871507555516e+01 4.400000000000e+00 1.175814499354e+00 5.174499664573e+02 5.471156960720e+01 1.340385118710e+01 8.094273252892e+00 -1.720946993256e+02 -1.505445302621e+02 -3.903565197703e+01 2.501365006718e+04
2.012537445870e+03 1.020000000000e+00 3.871507555516e+01 4.400000000000e+00 1.082454901667e+00 5.092028252466e+02 5.517417982346e+01 9.170860081322e+00 7.130885535458e+00 -1.764871392238e+02 -1.497035195963e+02 -2.408808226848e+01 2.394214918657e+04
2.012537559911e+03 1.020000000000e+00 3.871507555516e+01 4.400000000000e+00 1.014552821506e+00 5.012171259977e+02 5.462636202621e+01 5.610772371942e+00 6.668150937920e+00 -1.803432784866e+02 -1.476779217531e+02 -8.465400333446e+00 2.391092538426e+04
2.012537673951e+03 1.020000000000e+00 3.871507555516e+01 4.400000000000e+00 9.704722168580e-01 4.938118623742e+02 5.348999425570e+01 2.547933127541e+00 6.493940694911e+00 -1.833084932019e+02 -1.442946994128e+02 7.273622934018e+00 2.435931064356e+04
2.012537787991e+03 1.020000000000e+00 3.871507555516e+01 4.400000000000e+00 9.377146953954e-01 4.871901248695e+02 5.183835505786e+01 -5.771630959021e-02 6.479848098896e+00 -1.852412020923e+02 -1.397638846474e+02 2.274988124116e+01 2.514053581593e+04
2.012537902031e+03 1.020000000000e+00 3.871507555516e+01 4.400000000000e+00 9.085373768987e-01 4.801676528639e+02 5.087582943765e+01 -2.205375841689e+00 6.542776464115e+00 -1.860842149814e+02 -1.336395854502e+02 3.779835460870e+01 2.614580658804e+04
2.012538016072e+03 1.020000000000e+00 3.871507555516e+01 4.400000000000e+00 8.824910013810e-01 4.733648955207e+02 5.010889911228e+01 -4.094380937096e+00 6.510615174902e+00 -1.857001118563e+02 -1.264106660026e+02 5.217665930020e+01 2.673415696973e+04
2.012538130112e+03 1.020000000000e+00 3.871507555516e+01 4.400000000000e+00 8.601043780044e-01 4.674430971792e+02 4.917158790331e+01 -5.542719001198e+00 6.444936983629e+00 -1.844045965567e+02 -1.185015238847e+02 6.579305384346e+01 2.713432272342e+04
2.012538244152e+03 1.020000000000e+00 3.871507555516e+01 4.400000000000e+00 8.405155201585e-01 4.621914623568e+02 4.828906906183e+01 -6.564296865381e+00 6.243998765624e+00 -1.823672817444e+02 -1.100585801728e+02 7.847588918755e+01 2.689989298967e+04
2.012538358192e+03 1.020000000000e+00 3.971507555516e+01 4.500000000000e+00 8.535531312038e-01 4.502739537848e+02 4.651440997686e+01 -1.130982858088e+01 8.542255627473e+00 -1.793537049983e+02 -1.044310431899e+02 1.009284288061e+02 3.541173941007e+04
2.012538472233e+03 1.020000000000e+00 3.971507555516e+01 4.500000000000e+00 8.324094098506e-01 4.453193451662e+02 4.657874441549e+01 -1.198059907618e+01 7.676127089635e+00 -1.762616604252e+02 -9.408298499766e+01 1.113200964976e+02 3.288468033813e+04
2.012538586273e+03 1.020000000000e+00 3.971507555516e+01 4.500000000000e+00 8.148810880281e-01 4.410430586008e+02 4.721439087162e+01 -1.238417460692e+01 6.727858070486e+00 -1.726583095921e+02 -8.351679578277e+01 1.201644305667e+02 2.965211033995e+04
2.012538700313e+03 1.020000000000e+00 3.971507555516e+01 4.500000000000e+00 8.024410104289e-01 4.373073186214e+02 4.846282847349e+01 -1.259440503122e+01 5.888801898107e+00 -1.673977187730e+02 -7.316821534408e+01 1.275789091951e+02 2.651015378658e+04
2.012538814353e+03 1.020000000000e+00 3.971507555516e+01 4.500000000000e+00 7.934373768556e-01 4.341583897701e+02 5.005125541619e+01 -1.268420835019e+01 5.165330857561e+00 -1.609275124475e+02 -6.329352276892e+01 1.337061386137e+02 2.358408666442e+04
2.012538928394e+03 1.020000000000e+00 3.971507555516e+01 4.500000000000e+00 7.837830259311e-01 4.315736750550e+02 5.176634265757e+01 -1.272266869459e+01 4.596245052068e+00 -1.540907502771e+02 -5.400782696613e+01 1.385916911030e+02 2.125937387800e+04
2.012539042434e+03 1.020000000000e+00 3.971507555516e+01 4.500000000000e+00 7.722287008486e-01 4.295675682665e+02 5.343904899484e+01 -1.284916725624e+01 4.200052293571e+00 -1.472303064028e+02 -4.543498775645e+01 1.423166241173e+02 1.970893493359e+04
2.012539156474e+03 1.020000000000e+00 3.971507555516e+01 4.500000000000e+00 7.588652424969e-01 4.281715694284e+02 5.497913980466e+01 -1.324813955757e+01 3.944266426337e+00 -1.405110832864e+02 -3.768941755159e+01 1.449583328296e+02 1.882819194725e+04
2.012539270514e+03 1.020000000000e+00 3.971507555516e+01 4.500000000000e+00 7.419650230546e-01 4.271735594202e+02 5.624659699559e+01 -1.405538126652e+01 3.813166666499e+00 -1.341014345058e+02 -3.076854082176e+01 1.466235102149e+02 1.861868377967e+04
2.012539384555e+03 1.020000000000e+00 3.971507555516e+01 4.500000000000e+00 7.217579130595e-01 4.263315866034e+02 5.741042780769e+01 -1.532438841995e+01 3.777722878047e+00 -1.281578727563e+02 -2.456571775427e+01 1.474532254675e+02 1.896611003069e+04
2.012539498595e+03 1.020000000000e+00 3.971507555516e+01 4.500000000000e+00 6.974863187713e-01 4.256306774915e+02 5.862319231271e+01 -1.708612578732e+01 3.854228371212e+00 -1.226423686384e+02 -1.896122905870e+01 1.475612447616e+02 2.003611105962e+04
2.012539612635e+03 1.020000000000e+00 3.971507555516e+01 4.500000000000e+00 6.618620688263e-01 4.248702533633e+02 6.003669082724e+01 -1.929549607297e+01 3.902267671016e+00 -1.174663606558e+02 -1.397951171538e+01 1.470818267595e+02 2.140253828877e+04
2.012539726675e+03 1.020000000000e+00 3.971507555516e+01 4.500000000000e+00 6.123872897243e-01 4.238894174959e+02 6.189030587192e+01 -2.171649504097e+01 3.866467561352e+00 -1.126711132564e+02 -9.583403473524e+00 1.461972148276e+02 2.293274127000e+04
2.012539840716e+03 1.020000000000e+00 3.971507555516e+01 4.500000000000e+00 5.594168858867e-01 4.226822229965e+02 6.423827980743e+01 -2.420093831211e+01 3.763926003823e+00 -1.082919279196e+02 -5.651252917704e+00 1.450225263485e+02 2.444837601031e+04
2.012539954756e+03 1.020000000000e+00 3.971507555516e+01 4.500000000000e+00 5.084981900740e-01 4.212657002133e+02 6.706903663702e+01 -2.672899930978e+01 3.608900440361e+00 -1.042961374667e+02 -2.053487360817e+00 1.436673443653e+02 2.578530459084e+04
2.012540068796e+03 1.020000000000e+00 3.971507555516e+01 4.500000000000e+00 4.622774649667e-01 4.196246786460e+02 6.985023532168e+01 -2.932419131609e+01 3.383995437663e+00 -1.006093101252e+02 1.311041048543e+00 1.421597800765e+02 2.658406886385e+04
2.012540182836e+03 1.020000000000e+00 3.971507555516e+01 4.500000000000e+00 4.210965359164e-01 4.177763681543e+02 7.206302036108e+01 -3.180260289900e+01 3.161675089714e+00 -9.715516968562e+01 4.586837261790e+00 1.405126905364e+02 2.725853188962e+04
2.012540296877e+03 1.020000000000e+00 3.971507555516e+01 4.500000000000e+00 3.850393257715e-01 4.157398096903e+02 7.340471436954e+01 -3.394278086325e+01 2.993546093285e+00 -9.390749294906e+01 7.901016049577e+00 1.387753042212e+02 2.821827564973e+04
2.012540410917e+03 1.020000000000e+00 3.971507555516e+01 4.500000000000e+00 3.527072055667e-01 4.135183442769e+02 7.376109843584e+01 -3.560345448789e+01 2.889035663612e+00 -9.085361064750e+01 1.138092485806e+01 1.369484064847e+02 2.973043283538e+04
2.012540524957e+03 1.020000000000e+00 3.971507555516e+01 4.500000000000e+00 3.229961405359e-01 4.111023880723e+02 7.296456250610e+01 -3.672825179419e+01 2.892211629442e+00 -8.803269734006e+01 1.524726930340e+01 1.349780993251e+02 3.249688570846e+04
2.012540638997e+03 1.020000000000e+00 3.971507555516e+01 4.500000000000e+00 3.031072692428e-01 4.079440926126e+02 6.919012267853e+01 -3.671728276759e+01 3.206258194275e+00 -8.534597703962e+01 1.986032656007e+01 1.328458237339e+02 3.834642468712e+04
2.012540753038e+03 1.020000000000e+00 3.971507555516e+01 4.500000000000e+00 2.898371666586e-01 4.040179557838e+02 6.143611607727e+01 -3.597439162443e+01 3.809782934250e+00 -8.253448403245e+01 2.526664259893e+01 1.304801297395e+02 4.762344040772e+04
2.012540867078e+03 1.020000000000e+00 3.971507555516e+01 4.500000000000e+00 2.798263257718e-01 3.996817873366e+02 5.164501660075e+01 -3.444289807576e+01 4.422688571901e+00 -7.934236498509e+01 3.150889972892e+01 1.278429477493e+02 5.726318423195e+04
2.012540981118e+03 1.020000000000e+00 3.971507555516e+01 4.500000000000e+00 2.719122184200e-01 3.945322604250e+02 4.058276136924e+01 -3.138232434960e+01 4.906326477693e+00 -7.573999172304e+01 3.826319692504e+01 1.248222377834e+02 6.539108432797e+04
2.012541095158e+03 1.020000000000e+00 4.061507555516e+01 4.600000000000e+00 2.864390037974e-01 3.834207472511e+02 2.608199441950e+01 -2.705272795602e+01 4.949733248481e+00 -6.523238315717e+01 4.836606780719e+01 1.254681849049e+02 6.296155230790e+04
2.012541209199e+03 1.020000000000e+00 4.061507555516e+01 4.600000000000e+00 2.802754893042e-01 3.782565664219e+02 1.874509038809e+01 -2.197012866702e+01 4.870679591994e+00 -6.096212528817e+01 5.511370064782e+01 1.213474233258e+02 6.335491215424e+04
2.012541323239e+03 1.020000000000e+00 4.061507555516e+01 4.600000000000e+00 2.750824712218e-01 3.736665525653e+02 1.411656017652e+01 -1.723130983384e+01 4.664045982133e+00 -5.676596329569e+01 6.097668787133e+01 1.170467960666e+02 6.192822953803e+04
2.012541437279e+03 1.020000000000e+00 4.061507555516e+01 4.600000000000e+00 2.749962898705e-01 3.702497227423e+02 1.228571374255e+01 -1.327102573256e+01 4.376570533385e+00 -5.280650874674e+01 6.578630834891e+01 1.128284002838e+02 5.820130329390e+04
2.012541551319e+03 1.020000000000e+00 4.061507555516e+01 4.600000000000e+00 2.828446354862e-01 3.680004193715e+02 1.223305913526e+01 -1.033211173696e+01 4.116752236094e+00 -4.919021323941e+01 6.959134028731e+01 1.087805763467e+02 5.318724042602e+04
2.012541665360e+03 1.020000000000e+00 4.061507555516e+01 4.600000000000e+00 2.985896424969e-01 3.666980061671e+02 1.435139638226e+01 -8.313458680928e+00 3.927844735030e+00 -4.601997069549e+01 7.260426720923e+01 1.048810651680e+02 4.804972832991e+04
2.012541779400e+03 1.020000000000e+00 4.061507555516e+01 4.600000000000e+00 3.199269216008e-01 3.659398239655e+02 1.820787964700e+01 -6.514364879089e+00 3.794904231373e+00 -4.330250276330e+01 7.489638302825e+01 1.010713492747e+02 4.332985693572e+04
2.012541893440e+03 1.020000000000e+00 4.061507555516e+01 4.600000000000e+00 3.427113697190e-01 3.657608958568e+02 2.265346985170e+01 -4.655948101757e+00 3.707242229087e+00 -4.098449418843e+01 7.671042301110e+01 9.733855927281e+01 3.954237569163e+04
2.012542007480e+03 1.020000000000e+00 4.061507555516e+01 4.600000000000e+00 3.626070553902e-01 3.657920386853e+02 2.751696499206e+01 -2.890316580490e+00 3.632778509519e+00 -3.899217469905e+01 7.821273730535e+01 9.372997333676e+01 3.665789647970e+04
2.012542121521e+03 1.020000000000e+00 4.061507555516e+01 4.600000000000e+00 3.747298612650e-01 3.655182767471e+02 3.198288064861e+01 -1.205651294713e+00 3.557946795738e+00 -3.728363854030e+01 7.934892984780e+01 9.030120396675e+01 3.475307172767e+04
2.012542235561e+03 1.020000000000e+00 4.061507555516e+01 4.600000000000e+00 3.776651697710e-01 3.650224682457e+02 3.550248310100e+01 3.087233309558e-01 3.496293100913e+00 -3.581811598728e+01 8.022802868718e+01 8.708639451248e+01 3.389926004151e+04
2.012542349601e+03 1.020000000000e+00 4.061507555516e+01 4.600000000000e+00 3.727829047523e-01 3.643986171964e+02 3.806472873761e+01 1.375134214902e+00 3.450358909763e+00 -3.454643018453e+01 8.092258542014e+01 8.404854389824e+01 3.390288062584e+04
2.012542463641e+03 1.020000000000e+00 4.061507555516e+01 4.600000000000e+00 3.651362174846e-01 3.636979595903e+02 3.978301999308e+01 1.724584125421e+00 3.483120387793e+00 -3.342969925287e+01 8.139833080895e+01 8.119181072719e+01 3.494266627284e+04
2.012542577682e+03 1.020000000000e+00 4.061507555516e+01 4.600000000000e+00 3.553135788155e-01 3.633432697358e+02 4.075931777270e+01 1.117440238663e+00 4.089715925982e+00 -3.249017081176e+01 8.155367207195e+01 7.858928041253e+01 4.219818715907e+04
2.012542691722e+03 1.020000000000e+00 4.061507555516e+01 4.600000000000e+00 3.404310666112e-01 3.640544667081e+02 4.024605410464e+01 -2.102002362314e+00 6.413558201423e+00 -3.174074095357e+01 8.126173101151e+01 7.622200689206e+01 6.903931061448e+04