VARIABLES="time" "Distance" "lon" "lat" "density" "Vx" "Vy" "Vz" "p" "Bx" "By" "Bz" "T"
ZONE
DT=(DOUBLE DOUBLE DOUBLE DOUBLE DOUBLE DOUBLE DOUBLE DOUBLE DOUBLE DOUBLE DOUBLE DOUBLE DOUBLE )
2.012529234973e+03 1.020000000000e+00 3.591507555516e+01 4.200000000000e+00 3.652711505346e+00 4.177684221488e+02 7.070546155698e+00 -2.495022167756e+00 5.448854049228e+01 2.589592908127e+01 -8.701723017045e+00 -1.704747534736e+00 5.393331811807e+04
2.012529349013e+03 1.020000000000e+00 3.591507555516e+01 4.200000000000e+00 3.903202833374e+00 4.158196115199e+02 7.340565587187e+00 -1.329583821007e+00 5.995003876155e+01 2.288904737657e+01 -8.715980294206e+00 -5.343045652393e-01 5.552091706599e+04
2.012529463053e+03 1.020000000000e+00 3.591507555516e+01 4.200000000000e+00 4.208302510863e+00 4.143577701154e+02 7.379797602364e+00 -4.683467205378e-01 6.683595230242e+01 1.979479978681e+01 -8.630231237902e+00 4.775235883051e-01 5.741999675801e+04
2.012529577093e+03 1.020000000000e+00 3.591507555516e+01 4.200000000000e+00 4.521065477482e+00 4.130516063724e+02 7.252663438103e+00 3.731898310541e-02 7.409478726903e+01 1.679155663372e+01 -8.473536063887e+00 1.174904151339e+00 5.927367953126e+04
2.012529691134e+03 1.020000000000e+00 3.591507555516e+01 4.200000000000e+00 4.810908225710e+00 4.117652850988e+02 6.690424865382e+00 2.137844398206e-01 8.097763615994e+01 1.409177881491e+01 -8.299599059344e+00 1.511862639614e+00 6.089916541255e+04
2.012529805174e+03 1.020000000000e+00 3.591507555516e+01 4.200000000000e+00 5.066306087800e+00 4.104882391854e+02 5.506774891593e+00 1.302762661278e-01 8.715613141516e+01 1.184854255748e+01 -8.124906680124e+00 1.636758503909e+00 6.226142857226e+04
2.012529919214e+03 1.020000000000e+00 3.591507555516e+01 4.200000000000e+00 5.278334277020e+00 4.092336498352e+02 3.901115525303e+00 -3.146558901171e-01 9.236497109124e+01 1.010127823092e+01 -7.946145870004e+00 1.617046144366e+00 6.334727199225e+04
2.012530033254e+03 1.020000000000e+00 3.591507555516e+01 4.200000000000e+00 5.438415091503e+00 4.079879198204e+02 2.231460108717e+00 -9.870429345143e-01 9.657256115127e+01 8.782367248054e+00 -7.678240813423e+00 1.440013352031e+00 6.429240254744e+04
2.012530147295e+03 1.020000000000e+00 3.681507555516e+01 4.300000000000e+00 5.551844427043e+00 4.098110267439e+02 1.035310309332e+00 -2.269222294287e+00 9.760426406825e+01 1.103231125370e+01 -9.544930443406e+00 8.568938227319e-01 6.365780544410e+04
2.012530261335e+03 1.020000000000e+00 3.681507555516e+01 4.300000000000e+00 5.480315114719e+00 4.086357437318e+02 -4.146415041162e-01 -2.716695873943e+00 1.008032480619e+02 1.001309761383e+01 -8.556646803558e+00 9.343077759416e-02 6.660542502735e+04
2.012530375375e+03 1.020000000000e+00 3.681507555516e+01 4.300000000000e+00 5.363698712392e+00 4.075158606601e+02 -1.533306927925e+00 -3.111510249663e+00 1.027415884957e+02 9.054747465236e+00 -7.480332831798e+00 -5.450961592020e-01 6.936544779973e+04
2.012530489415e+03 1.020000000000e+00 3.681507555516e+01 4.300000000000e+00 5.231056537670e+00 4.062044276155e+02 -2.185394070449e+00 -3.362626547132e+00 1.028870092392e+02 8.036715483932e+00 -6.245957809711e+00 -9.397132639965e-01 7.122917171752e+04
2.012530603456e+03 1.020000000000e+00 3.681507555516e+01 4.300000000000e+00 5.082420832041e+00 4.043295967203e+02 -2.446773516704e+00 -3.452495136468e+00 1.007675057323e+02 6.846181740267e+00 -4.634230882542e+00 -1.087031378070e+00 7.180342192170e+04
2.012530717496e+03 1.020000000000e+00 3.681507555516e+01 4.300000000000e+00 4.939247001056e+00 4.020623564029e+02 -2.434429155271e+00 -3.409477804910e+00 9.782372340856e+01 5.394752258188e+00 -2.827414391575e+00 -1.103213369805e+00 7.172632430202e+04
2.012530831536e+03 1.020000000000e+00 3.681507555516e+01 4.300000000000e+00 4.814625999147e+00 3.994822715487e+02 -1.883648361949e+00 -3.057081902323e+00 9.485317488147e+01 3.622082590642e+00 -9.447161920832e-01 -9.700881785947e-01 7.134907619018e+04
2.012530945576e+03 1.020000000000e+00 3.681507555516e+01 4.300000000000e+00 4.705092723779e+00 3.965639110606e+02 -6.859141544465e-01 -2.126468138502e+00 9.207156497696e+01 1.498253453362e+00 1.040293108416e+00 -5.410757638171e-01 7.087141142185e+04
2.012531059617e+03 1.020000000000e+00 3.681507555516e+01 4.300000000000e+00 4.609692804908e+00 3.933197519942e+02 1.128613974079e+00 -8.917888371793e-01 8.933273965839e+01 -9.855418457651e-01 3.212943449818e+00 1.448772708219e-01 7.018756051560e+04
2.012531173657e+03 1.020000000000e+00 3.681507555516e+01 4.300000000000e+00 4.527716941892e+00 3.898409779434e+02 3.225825056519e+00 2.992154270556e-01 8.603117437313e+01 -3.815543421701e+00 5.577059283836e+00 8.214044579918e-01 6.882006287433e+04
2.012531287697e+03 1.020000000000e+00 3.681507555516e+01 4.300000000000e+00 4.475656873307e+00 3.862759194279e+02 5.464116923668e+00 1.268396840924e+00 8.228004584565e+01 -6.956091043268e+00 8.104027777442e+00 1.316743723617e+00 6.658260314638e+04
2.012531401737e+03 1.020000000000e+00 3.681507555516e+01 4.300000000000e+00 4.468252580304e+00 3.827392164662e+02 7.747283522378e+00 1.984929991934e+00 7.827516202662e+01 -1.032932902012e+01 1.074346158677e+01 1.624076502170e+00 6.343353455354e+04
2.012531515778e+03 1.020000000000e+00 3.681507555516e+01 4.300000000000e+00 4.476779220841e+00 3.792832619838e+02 9.993784202192e+00 2.481497751807e+00 7.381689342870e+01 -1.382130360354e+01 1.341283889296e+01 1.801306285428e+00 5.969044838788e+04
2.012531629818e+03 1.020000000000e+00 3.681507555516e+01 4.300000000000e+00 4.486806911298e+00 3.759750008771e+02 1.211212274447e+01 2.731744026441e+00 6.852158273164e+01 -1.729781835955e+01 1.605170507250e+01 1.864154580613e+00 5.526988737170e+04
2.012531743858e+03 1.020000000000e+00 3.681507555516e+01 4.300000000000e+00 4.494505364074e+00 3.729269593400e+02 1.400581479476e+01 2.789406957587e+00 6.278061309355e+01 -2.063229765245e+01 1.860940069256e+01 1.814024014872e+00 5.054326289485e+04
2.012531857898e+03 1.020000000000e+00 3.681507555516e+01 4.300000000000e+00 4.504511847086e+00 3.702176134248e+02 1.559529517384e+01 2.705992847927e+00 5.706323472899e+01 -2.372667407667e+01 2.097872817216e+01 1.604097334632e+00 4.583882010357e+04
2.012531971939e+03 1.020000000000e+00 3.681507555516e+01 4.300000000000e+00 4.524392931453e+00 3.678712696154e+02 1.682551400714e+01 2.487581224662e+00 5.179938686391e+01 -2.651097638059e+01 2.308177839019e+01 1.211588991842e+00 4.144193964051e+04
2.012532085979e+03 1.020000000000e+00 3.681507555516e+01 4.300000000000e+00 4.560386501978e+00 3.658760023997e+02 1.767192855622e+01 2.158869932052e+00 4.732954055863e+01 -2.895061529112e+01 2.489774697253e+01 6.538143053951e-01 3.758993980868e+04
2.012532200019e+03 1.020000000000e+00 3.681507555516e+01 4.300000000000e+00 4.618657107697e+00 3.642403883746e+02 1.818295397853e+01 1.864106068571e+00 4.388296019538e+01 -3.105285862506e+01 2.645913951496e+01 9.698587071841e-02 3.443159290687e+04
2.012532314059e+03 1.020000000000e+00 3.681507555516e+01 4.300000000000e+00 4.703898121532e+00 3.629515824175e+02 1.841161744729e+01 1.694979042262e+00 4.140360460449e+01 -3.283575820639e+01 2.777201555915e+01 -3.453015729355e-01 3.190817537349e+04
2.012532428100e+03 1.020000000000e+00 3.681507555516e+01 4.300000000000e+00 4.807200979168e+00 3.620716636504e+02 1.839371671767e+01 1.631291666572e+00 3.975915749457e+01 -3.433531298878e+01 2.886579193544e+01 -6.113616157930e-01 2.998531538844e+04
2.012532542140e+03 1.020000000000e+00 3.681507555516e+01 4.300000000000e+00 4.910669678896e+00 3.616399817782e+02 1.814811524217e+01 1.651665427448e+00 3.862251312532e+01 -3.558923900930e+01 2.983914167232e+01 -7.260361078164e-01 2.850241387126e+04
2.012532656180e+03 1.020000000000e+00 3.681507555516e+01 4.300000000000e+00 5.036598918385e+00 3.617452358317e+02 1.753258374770e+01 1.820799767689e+00 3.818327324389e+01 -3.662211505967e+01 3.066551044165e+01 -7.289649462348e-01 2.746967092681e+04
2.012532770220e+03 1.020000000000e+00 3.681507555516e+01 4.300000000000e+00 5.163021914869e+00 3.624776734152e+02 1.647024441799e+01 2.195823687587e+00 3.845651900775e+01 -3.743129569920e+01 3.140932159126e+01 -5.795363686750e-01 2.699007349069e+04
2.012532884261e+03 1.020000000000e+00 3.781507555516e+01 4.400000000000e+00 5.172339108707e+00 3.591512748831e+02 1.787855962697e+01 2.182765300714e+00 3.945304377991e+01 -3.629644912621e+01 3.061221774139e+01 -6.791301193311e-01 2.764483958337e+04
2.012532998301e+03 1.020000000000e+00 3.781507555516e+01 4.400000000000e+00 5.361986165608e+00 3.600837324913e+02 1.663449065733e+01 2.601428087543e+00 4.011228791689e+01 -3.714003887981e+01 3.136108046706e+01 -4.005871301084e-01 2.709623728269e+04
2.012533112341e+03 1.020000000000e+00 3.781507555516e+01 4.400000000000e+00 5.564517297356e+00 3.616889967493e+02 1.497925400787e+01 3.160077377077e+00 4.155292497642e+01 -3.777368883487e+01 3.201547945159e+01 1.694357816148e-02 2.702622158899e+04
2.012533226381e+03 1.020000000000e+00 3.781507555516e+01 4.400000000000e+00 5.778237001130e+00 3.636266008212e+02 1.303128391619e+01 3.844055276074e+00 4.345715257105e+01 -3.820740607093e+01 3.255919842524e+01 6.060096184999e-01 2.717952168066e+04
2.012533340422e+03 1.020000000000e+00 3.781507555516e+01 4.400000000000e+00 6.062677925476e+00 3.661329440066e+02 1.068660075801e+01 4.567156075262e+00 4.637255191014e+01 -3.846080289607e+01 3.285201711357e+01 1.296754931439e+00 2.762369038787e+04
2.012533454462e+03 1.020000000000e+00 3.781507555516e+01 4.400000000000e+00 6.360492798528e+00 3.689616265408e+02 8.186078630358e+00 5.261569594889e+00 4.978227223752e+01 -3.857172938456e+01 3.293204349417e+01 2.015501435534e+00 2.827258950683e+04
2.012533568502e+03 1.020000000000e+00 3.781507555516e+01 4.400000000000e+00 6.600513824892e+00 3.718116346597e+02 5.713658831328e+00 5.892840978909e+00 5.313318095847e+01 -3.858397120855e+01 3.284518673492e+01 2.688474216544e+00 2.910086242552e+04
2.012533682542e+03 1.020000000000e+00 3.781507555516e+01 4.400000000000e+00 6.741841603041e+00 3.745000090586e+02 3.372466481414e+00 6.425199231675e+00 5.614032011607e+01 -3.854295783727e+01 3.261524339179e+01 3.248313144445e+00 3.014113772016e+04
2.012533796583e+03 1.020000000000e+00 3.781507555516e+01 4.400000000000e+00 6.816701020465e+00 3.768794864280e+02 1.237179451817e+00 6.843353469653e+00 5.861879687099e+01 -3.849576982174e+01 3.222387893445e+01 3.659200562731e+00 3.117516768303e+04
2.012533910623e+03 1.020000000000e+00 3.781507555516e+01 4.400000000000e+00 6.795983524721e+00 3.788687859817e+02 -6.147785818761e-01 7.152706498610e+00 6.041477845874e+01 -3.847806212866e+01 3.169538126016e+01 3.922180439419e+00 3.225252678948e+04
2.012534024663e+03 1.020000000000e+00 3.781507555516e+01 4.400000000000e+00 6.687182788871e+00 3.804186910553e+02 -2.152533655855e+00 7.368824273470e+00 6.131682988568e+01 -3.852547328867e+01 3.110728532087e+01 4.055817549215e+00 3.325792244554e+04
2.012534138703e+03 1.020000000000e+00 3.781507555516e+01 4.400000000000e+00 6.505558409629e+00 3.813554062206e+02 -3.415161567610e+00 7.527801763971e+00 6.098776731995e+01 -3.845310567742e+01 3.042050451188e+01 4.064248550277e+00 3.399759703507e+04
2.012534252744e+03 1.020000000000e+00 3.781507555516e+01 4.400000000000e+00 6.703233760584e+00 3.906671218293e+02 -3.607339077024e+00 4.466821208895e+00 1.439915857825e+02 -3.866188962352e+01 3.196399833826e+01 2.870756718690e+00 7.233919460395e+04
2.012534366784e+03 1.020000000000e+00 3.781507555516e+01 4.400000000000e+00 1.259839940705e+01 5.062257104940e+02 2.163890980332e+00 -2.999393044227e+01 2.194093951687e+03 -4.418265954244e+01 7.006649249273e+01 -1.101743736489e+01 6.047815126076e+05
2.012534480824e+03 1.020000000000e+00 3.781507555516e+01 4.400000000000e+00 1.901425557249e+01 5.973819129729e+02 9.066244114417e+00 -5.465629306405e+01 5.117334435560e+03 -4.946805007102e+01 1.236042503593e+02 -2.403807798463e+01 9.752341447199e+05
2.012534594864e+03 1.020000000000e+00 3.781507555516e+01 4.400000000000e+00 1.868753393376e+01 6.090115239023e+02 1.156485759438e+01 -5.462735003177e+01 5.153079229073e+03 -4.726729066770e+01 1.278711323876e+02 -2.149182039583e+01 9.985594230338e+05
2.012534708905e+03 1.020000000000e+00 3.781507555516e+01 4.400000000000e+00 1.733781413212e+01 6.032227372836e+02 1.167142846564e+01 -4.923971885458e+01 4.569304446526e+03 -4.093068857730e+01 1.183018261630e+02 -1.176065729207e+01 9.539822825859e+05
2.012534822945e+03 1.020000000000e+00 3.781507555516e+01 4.400000000000e+00 1.681778409372e+01 5.955571745364e+02 8.328767207479e+00 -4.600364593676e+01 4.114355746480e+03 -3.548106598112e+01 8.891852843889e+01 -5.557385231247e+00 8.861169030175e+05
2.012534936985e+03 1.020000000000e+00 3.781507555516e+01 4.400000000000e+00 1.720084917316e+01 5.973249048660e+02 -2.268842364764e+00 -4.681197761696e+01 4.045817753436e+03 -3.121901245229e+01 3.344219539651e+01 -5.301372963397e+00 8.518573849573e+05
2.012535051025e+03 1.020000000000e+00 3.781507555516e+01 4.400000000000e+00 1.708309302702e+01 6.025567379491e+02 -1.658277630366e+01 -5.325459903420e+01 3.933854795487e+03 -2.775134261713e+01 -3.807054412522e+01 -1.729047873815e+01 8.341760713225e+05
2.012535165066e+03 1.020000000000e+00 3.781507555516e+01 4.400000000000e+00 1.536756577096e+01 6.032351472307e+02 -2.658658857259e+01 -5.868533189468e+01 3.395339462427e+03 -2.735601900792e+01 -1.021800601250e+02 -4.346980365680e+01 8.017853374669e+05
2.012535279106e+03 1.020000000000e+00 3.781507555516e+01 4.400000000000e+00 1.201825777356e+01 5.984413208559e+02 -2.981437634652e+01 -5.882367276765e+01 2.629355879298e+03 -3.614889852263e+01 -1.340654463803e+02 -7.238539480186e+01 7.975969501007e+05
2.012535393146e+03 1.020000000000e+00 3.781507555516e+01 4.400000000000e+00 8.582584307466e+00 5.891498478884e+02 -2.689891696943e+01 -5.188288633765e+01 1.932999265350e+03 -5.996539851295e+01 -1.337160315139e+02 -9.693902791939e+01 8.195199230225e+05
2.012535507186e+03 1.020000000000e+00 3.781507555516e+01 4.400000000000e+00 6.398161169049e+00 5.797952880712e+02 -1.344635144364e+01 -4.334701541752e+01 1.435304767126e+03 -8.771584685906e+01 -1.206535025870e+02 -1.166525599208e+02 8.119984935297e+05
2.012535621227e+03 1.020000000000e+00 3.871507555516e+01 4.400000000000e+00 5.098399797793e+00 5.768073757568e+02 9.326848647721e+00 -4.211000295303e+01 1.025534151562e+03 -1.099963438462e+02 -9.969264200363e+01 -1.390877412897e+02 7.262648641143e+05
2.012535735267e+03 1.020000000000e+00 3.871507555516e+01 4.400000000000e+00 4.340771020480e+00 5.712340928606e+02 3.707619074394e+01 -4.247169769200e+01 7.225538710346e+02 -1.273155797344e+02 -8.174819452855e+01 -1.551258213819e+02 6.016850972113e+05
2.012535849307e+03 1.020000000000e+00 3.871507555516e+01 4.400000000000e+00 4.054408194404e+00 5.645224170685e+02 5.091897039204e+01 -4.204782838531e+01 5.147405099363e+02 -1.389549732186e+02 -7.411719532987e+01 -1.622206021783e+02 4.595101470235e+05
2.012535963347e+03 1.020000000000e+00 3.871507555516e+01 4.400000000000e+00 3.930440034307e+00 5.577568677143e+02 5.348561969287e+01 -3.828632865639e+01 3.743836750511e+02 -1.479772193849e+02 -7.338767875376e+01 -1.624059454120e+02 3.451007176901e+05
2.012536077388e+03 1.020000000000e+00 3.871507555516e+01 4.400000000000e+00 3.866340321491e+00 5.544988738379e+02 5.047555380569e+01 -2.611573994454e+01 2.703279105228e+02 -1.555956071559e+02 -8.376319030433e+01 -1.567166882538e+02 2.531931517477e+05
2.012536191428e+03 1.020000000000e+00 3.871507555516e+01 4.400000000000e+00 3.742833027574e+00 5.534485627685e+02 4.514017323269e+01 -8.002160629628e+00 1.892492666706e+02 -1.621740222345e+02 -1.018544224891e+02 -1.424307131890e+02 1.829448197704e+05
2.012536305468e+03 1.020000000000e+00 3.871507555516e+01 4.400000000000e+00 3.497477187774e+00 5.562245091782e+02 4.185046717104e+01 8.471273233257e+00 1.266737094361e+02 -1.682480316577e+02 -1.205637321004e+02 -1.241578761945e+02 1.305910563233e+05
2.012536419508e+03 1.020000000000e+00 3.871507555516e+01 4.400000000000e+00 2.996240484341e+00 5.596380313083e+02 4.230010201674e+01 1.914272379424e+01 7.988743307063e+01 -1.729782402553e+02 -1.345748560777e+02 -1.048147976741e+02 9.593013991127e+04
2.012536533549e+03 1.020000000000e+00 3.871507555516e+01 4.400000000000e+00 2.407181056897e+00 5.608902406755e+02 4.655151865928e+01 2.309041753922e+01 4.952030566880e+01 -1.773027688681e+02 -1.424041365218e+02 -8.594660470822e+01 7.412775661464e+04
2.012536647589e+03 1.020000000000e+00 3.871507555516e+01 4.400000000000e+00 1.924850293439e+00 5.611446927974e+02 5.171339031888e+01 2.202973715416e+01 3.260599068688e+01 -1.818760357605e+02 -1.463436764201e+02 -6.769509250218e+01 6.130861715463e+04
2.012536761629e+03 1.020000000000e+00 3.871507555516e+01 4.400000000000e+00 1.600089366409e+00 5.602612221893e+02 5.480920844979e+01 1.706204594910e+01 2.385832991482e+01 -1.860625774862e+02 -1.485785032806e+02 -4.995245431729e+01 5.407751620148e+04
2.012536875669e+03 1.020000000000e+00 3.871507555516e+01 4.400000000000e+00 1.365959069378e+00 5.567349893116e+02 5.627876157475e+01 1.150566187903e+01 1.886309009489e+01 -1.896592724834e+02 -1.485731816107e+02 -3.182671137135e+01 5.022716178703e+04
2.012536989709e+03 1.020000000000e+00 3.871507555516e+01 4.400000000000e+00 1.159816788348e+00 5.511595913680e+02 5.624302845954e+01 6.023951909463e+00 1.531402945362e+01 -1.926338643741e+02 -1.465204445902e+02 -1.352029965313e+01 4.814438688719e+04
2.012537103750e+03 1.020000000000e+00 3.871507555516e+01 4.400000000000e+00 1.004506088022e+00 5.446552514279e+02 5.425452871184e+01 8.883552047580e-01 1.355019913785e+01 -1.946993578814e+02 -1.430814133976e+02 4.817137890458e+00 4.909287313563e+04
2.012537217790e+03 1.020000000000e+00 3.871507555516e+01 4.400000000000e+00 9.184195921622e-01 5.377106348197e+02 5.146901861916e+01 -3.619180834132e+00 1.271996200819e+01 -1.958692246973e+02 -1.383515612893e+02 2.301732485373e+01 5.034751014038e+04
2.012537331830e+03 1.020000000000e+00 3.871507555516e+01 4.400000000000e+00 8.633384145866e-01 5.296233033694e+02 4.935377060198e+01 -7.477846292772e+00 1.215356730621e+01 -1.961389294522e+02 -1.318127758209e+02 4.067348324104e+01 5.113107381160e+04
2.012537445870e+03 1.020000000000e+00 3.871507555516e+01 4.400000000000e+00 8.176044410435e-01 5.214236132352e+02 4.715353947782e+01 -1.053098464326e+01 1.199453379705e+01 -1.956551221978e+02 -1.241428861742e+02 5.744948292477e+01 5.326140521529e+04
2.012537559911e+03 1.020000000000e+00 3.871507555516e+01 4.400000000000e+00 7.729345172991e-01 5.137588235106e+02 4.525218377683e+01 -1.265673977508e+01 1.188181341356e+01 -1.943458210126e+02 -1.156454744077e+02 7.312467876285e+01 5.578107980325e+04
2.012537673951e+03 1.020000000000e+00 3.871507555516e+01 4.400000000000e+00 7.297065465989e-01 5.063464133855e+02 4.432484415133e+01 -1.408098438893e+01 1.157468067434e+01 -1.919585049365e+02 -1.062736423156e+02 8.734510298907e+01 5.752965183913e+04
2.012537787991e+03 1.020000000000e+00 3.871507555516e+01 4.400000000000e+00 6.910964320767e-01 4.993670620044e+02 4.418546091947e+01 -1.505473361727e+01 1.115146049188e+01 -1.888602500988e+02 -9.632294341686e+01 9.997374179547e+01 5.850214276060e+04
2.012537902031e+03 1.020000000000e+00 3.871507555516e+01 4.400000000000e+00 6.588975968419e-01 4.927006657320e+02 4.469488485293e+01 -1.577456826481e+01 1.067241919599e+01 -1.852426042425e+02 -8.605797192482e+01 1.109792244625e+02 5.870519183014e+04
2.012538016072e+03 1.020000000000e+00 3.871507555516e+01 4.400000000000e+00 6.317530739848e-01 4.864414251107e+02 4.603602095221e+01 -1.635477515093e+01 1.013145642449e+01 -1.799194939100e+02 -7.583330474630e+01 1.203216075085e+02 5.811182282912e+04
2.012538130112e+03 1.020000000000e+00 3.871507555516e+01 4.400000000000e+00 6.073922983538e-01 4.808373286579e+02 4.761892594320e+01 -1.705399173859e+01 9.573156353879e+00 -1.735979741817e+02 -6.586005658922e+01 1.280183543948e+02 5.710127449557e+04
2.012538244152e+03 1.020000000000e+00 3.871507555516e+01 4.400000000000e+00 5.867159012853e-01 4.757348790091e+02 4.969584511600e+01 -1.791440925726e+01 9.076423262099e+00 -1.670716574627e+02 -5.625178597416e+01 1.341726222450e+02 5.603598181788e+04
2.012538358192e+03 1.020000000000e+00 3.971507555516e+01 4.500000000000e+00 5.815302210054e-01 4.605373656449e+02 5.055627803035e+01 -2.179928815868e+01 8.095410601195e+00 -1.562357723131e+02 -4.635630177837e+01 1.503069825050e+02 5.045457882039e+04
2.012538472233e+03 1.020000000000e+00 3.971507555516e+01 4.500000000000e+00 5.625681494398e-01 4.557824440032e+02 5.252587263502e+01 -2.260512354462e+01 7.714610319330e+00 -1.487050897088e+02 -3.789811986156e+01 1.532590756615e+02 4.970270513577e+04
2.012538586273e+03 1.020000000000e+00 3.971507555516e+01 4.500000000000e+00 5.439020588002e-01 4.518870602532e+02 5.417855420824e+01 -2.363473933301e+01 7.466295587886e+00 -1.414272643072e+02 -3.030176611753e+01 1.550301765960e+02 4.975627125538e+04
2.012538700313e+03 1.020000000000e+00 3.971507555516e+01 4.500000000000e+00 5.233860783387e-01 4.486885000210e+02 5.537433030806e+01 -2.470807787713e+01 7.342129572098e+00 -1.345437601794e+02 -2.345134769034e+01 1.558067419584e+02 5.085791939645e+04
2.012538814353e+03 1.020000000000e+00 3.971507555516e+01 4.500000000000e+00 4.998262438858e-01 4.458985649726e+02 5.621419705257e+01 -2.590140310964e+01 7.218659061672e+00 -1.280444298259e+02 -1.728009405011e+01 1.557906715652e+02 5.235908422766e+04
2.012538928394e+03 1.020000000000e+00 3.971507555516e+01 4.500000000000e+00 4.748786254490e-01 4.433961342669e+02 5.685422527463e+01 -2.715740854891e+01 7.053220531342e+00 -1.219772496247e+02 -1.172629515981e+01 1.551557408872e+02 5.382979981446e+04
2.012539042434e+03 1.020000000000e+00 3.971507555516e+01 4.500000000000e+00 4.509977105366e-01 4.409243633340e+02 5.755218363708e+01 -2.864861291067e+01 6.831048093279e+00 -1.163505256626e+02 -6.693528528622e+00 1.540164382377e+02 5.487877592174e+04
2.012539156474e+03 1.020000000000e+00 3.971507555516e+01 4.500000000000e+00 4.290302044412e-01 4.386250086686e+02 5.841868200764e+01 -3.023620356448e+01 6.591322335848e+00 -1.112118985001e+02 -2.120787187631e+00 1.525198277298e+02 5.565643351505e+04
2.012539270514e+03 1.020000000000e+00 3.971507555516e+01 4.500000000000e+00 4.076576998314e-01 4.365010928627e+02 5.949480253975e+01 -3.189167756868e+01 6.286895058157e+00 -1.065645571731e+02 2.060786600393e+00 1.507662653567e+02 5.585783515625e+04
2.012539384555e+03 1.020000000000e+00 3.971507555516e+01 4.500000000000e+00 3.849860207917e-01 4.344384033790e+02 6.073105653467e+01 -3.377876343560e+01 5.860466825782e+00 -1.023441390071e+02 5.867484415684e+00 1.488164129523e+02 5.512946567245e+04
2.012539498595e+03 1.020000000000e+00 3.971507555516e+01 4.500000000000e+00 3.612901380108e-01 4.324700809331e+02 6.189286323140e+01 -3.569837221856e+01 5.372067545777e+00 -9.832776730318e+01 9.327372634987e+00 1.467035290765e+02 5.384455007266e+04
2.012539612635e+03 1.020000000000e+00 3.971507555516e+01 4.500000000000e+00 3.387500847245e-01 4.304890139496e+02 6.279492097458e+01 -3.750933248699e+01 4.896964029730e+00 -9.451801681670e+01 1.251269045861e+01 1.444810560426e+02 5.235039260098e+04
2.012539726675e+03 1.020000000000e+00 3.971507555516e+01 4.500000000000e+00 3.175368969360e-01 4.284411065963e+02 6.333561084274e+01 -3.903500622214e+01 4.515495468065e+00 -9.094073272573e+01 1.550097405663e+01 1.421624424384e+02 5.151467877297e+04
2.012539840716e+03 1.020000000000e+00 3.971507555516e+01 4.500000000000e+00 2.944743921586e-01 4.263589206253e+02 6.342202356924e+01 -4.010273165416e+01 4.263861301879e+00 -8.755889496092e+01 1.848623230294e+01 1.397800604145e+02 5.250580639601e+04
2.012539954756e+03 1.020000000000e+00 3.971507555516e+01 4.500000000000e+00 2.692666039137e-01 4.240497327975e+02 6.255224009750e+01 -4.048131232749e+01 4.131458329952e+00 -8.428726565328e+01 2.176387172918e+01 1.373293998054e+02 5.566051982687e+04
2.012540068796e+03 1.020000000000e+00 3.971507555516e+01 4.500000000000e+00 2.498508689793e-01 4.212699582617e+02 6.059760100879e+01 -4.000690553263e+01 4.237071460813e+00 -8.105460315084e+01 2.567017680251e+01 1.347294652104e+02 6.150462122291e+04
2.012540182836e+03 1.020000000000e+00 3.971507555516e+01 4.500000000000e+00 2.361228238413e-01 4.179167994092e+02 5.623129650932e+01 -3.893475947577e+01 4.702125681870e+00 -7.775500648031e+01 3.023267866166e+01 1.319045676691e+02 7.219473014028e+04
2.012540296877e+03 1.020000000000e+00 3.971507555516e+01 4.500000000000e+00 2.265357094580e-01 4.136015501995e+02 5.007114360863e+01 -3.737299518621e+01 5.362505746223e+00 -7.416740150283e+01 3.551804549146e+01 1.289395399661e+02 8.581270743757e+04
2.012540410917e+03 1.020000000000e+00 3.971507555516e+01 4.500000000000e+00 2.193626521392e-01 4.085547054882e+02 4.237887678677e+01 -3.438893982228e+01 5.930102377275e+00 -7.013782986697e+01 4.148837319841e+01 1.256941208343e+02 9.801871901063e+04
2.012540524957e+03 1.020000000000e+00 3.971507555516e+01 4.500000000000e+00 2.139000039512e-01 4.030020830027e+02 3.415448421511e+01 -3.083987104549e+01 6.299053647041e+00 -6.584705929027e+01 4.781525584734e+01 1.220699533583e+02 1.068883062621e+05
2.012540638997e+03 1.020000000000e+00 3.971507555516e+01 4.500000000000e+00 2.092933793586e-01 3.970699901174e+02 2.700446575904e+01 -2.689835255207e+01 6.367665744626e+00 -6.149467934734e+01 5.393153641876e+01 1.181981777968e+02 1.105940310244e+05
2.012540753038e+03 1.020000000000e+00 3.971507555516e+01 4.500000000000e+00 2.037043810639e-01 3.911083382651e+02 2.170589401873e+01 -2.294989824818e+01 6.242305107082e+00 -5.712212151685e+01 5.935407976017e+01 1.141615553228e+02 1.114720550888e+05
2.012540867078e+03 1.020000000000e+00 3.971507555516e+01 4.500000000000e+00 1.991385093094e-01 3.855810750309e+02 1.860689133591e+01 -1.979236402129e+01 5.991811798105e+00 -5.293403511970e+01 6.380502329822e+01 1.101156635574e+02 1.096300051003e+05
2.012540981118e+03 1.020000000000e+00 3.971507555516e+01 4.500000000000e+00 1.996991382343e-01 3.812457696967e+02 1.786258931489e+01 -1.727231178786e+01 5.648737011617e+00 -4.907822500316e+01 6.727156538185e+01 1.063116478569e+02 1.035108531526e+05
2.012541095158e+03 1.020000000000e+00 4.061507555516e+01 4.600000000000e+00 2.291458805964e-01 3.752237897623e+02 1.877816222672e+01 -1.537219149481e+01 4.501440381153e+00 -3.899018585383e+01 7.162008293119e+01 1.045467812776e+02 7.196256413469e+04
2.012541209199e+03 1.020000000000e+00 4.061507555516e+01 4.600000000000e+00 2.506378681446e-01 3.731038396993e+02 2.217958669172e+01 -1.388435379866e+01 4.296747064933e+00 -3.630629238942e+01 7.308775729160e+01 1.010319668876e+02 6.282185153954e+04
2.012541323239e+03 1.020000000000e+00 4.061507555516e+01 4.600000000000e+00 2.802083109105e-01 3.711727243561e+02 2.558498879735e+01 -1.181036846562e+01 4.190749688159e+00 -3.405848397350e+01 7.406243723967e+01 9.771963118313e+01 5.480423333758e+04
2.012541437279e+03 1.020000000000e+00 4.061507555516e+01 4.600000000000e+00 3.136081992613e-01 3.694001032975e+02 2.872474059300e+01 -9.088316465495e+00 4.141379023660e+00 -3.223464600563e+01 7.471841120428e+01 9.454985453933e+01 4.838520241165e+04
2.012541551319e+03 1.020000000000e+00 4.061507555516e+01 4.600000000000e+00 3.458199922412e-01 3.675659021416e+02 3.157768090076e+01 -5.939192153492e+00 4.165359282437e+00 -3.078157796879e+01 7.516613014016e+01 9.154791718233e+01 4.410190404793e+04
2.012541665360e+03 1.020000000000e+00 4.061507555516e+01 4.600000000000e+00 3.701926174327e-01 3.656447265946e+02 3.407503730328e+01 -2.727085622495e+00 4.204936017403e+00 -2.962127879871e+01 7.543971793430e+01 8.869748151934e+01 4.153035944379e+04
2.012541779400e+03 1.020000000000e+00 4.061507555516e+01 4.600000000000e+00 3.839802403793e-01 3.637270299549e+02 3.615615764675e+01 1.397889570890e-01 4.268401899882e+00 -2.870302632821e+01 7.556571117695e+01 8.597684967932e+01 4.062144494407e+04
2.012541893440e+03 1.020000000000e+00 4.061507555516e+01 4.600000000000e+00 3.881614762798e-01 3.618356507371e+02 3.793946413368e+01 2.161048580884e+00 4.434381841795e+00 -2.798669612710e+01 7.555745778039e+01 8.339231316896e+01 4.171572258457e+04
2.012542007480e+03 1.020000000000e+00 4.061507555516e+01 4.600000000000e+00 3.837128461524e-01 3.600075297369e+02 3.966213146856e+01 3.261078905189e+00 4.874473145922e+00 -2.742148590522e+01 7.543912660856e+01 8.093231290771e+01 4.635751877852e+04
2.012542121521e+03 1.020000000000e+00 4.061507555516e+01 4.600000000000e+00 3.738068019279e-01 3.585340864441e+02 4.087571425178e+01 3.214733008291e+00 6.124484331756e+00 -2.693915702903e+01 7.516821548990e+01 7.860695511082e+01 5.988548643215e+04
2.012542235561e+03 1.020000000000e+00 4.061507555516e+01 4.600000000000e+00 3.568170729109e-01 3.577336281259e+02 4.111924450383e+01 1.719100595138e+00 8.801309815952e+00 -2.652359511784e+01 7.467603678037e+01 7.641934581480e+01 9.032525845100e+04
2.012542349601e+03 1.020000000000e+00 4.061507555516e+01 4.600000000000e+00 3.321932947397e-01 3.579100806931e+02 3.982508767563e+01 -3.419637708137e+00 1.258179844778e+01 -2.625275022615e+01 7.398186572053e+01 7.429454887459e+01 1.384426710503e+05
2.012542463641e+03 1.020000000000e+00 4.061507555516e+01 4.600000000000e+00 3.080636507059e-01 3.596339211395e+02 3.425808583801e+01 -1.163110006221e+01 1.686242364007e+01 -2.619176140677e+01 7.291100715669e+01 7.233615005478e+01 1.992646140168e+05
2.012542577682e+03 1.020000000000e+00 4.061507555516e+01 4.600000000000e+00 2.905747534424e-01 3.625738416582e+02 2.503145023098e+01 -2.053663024890e+01 2.113772463780e+01 -2.663496358417e+01 7.152014172148e+01 7.081376006215e+01 2.640294423098e+05
2.012542691722e+03 1.020000000000e+00 4.061507555516e+01 4.600000000000e+00 2.800651888753e-01 3.655499945585e+02 1.518824053940e+01 -2.752197630482e+01 2.482197651774e+01 -2.772258965376e+01 6.974031010246e+01 6.973801057302e+01 3.213116547582e+05